/*--------------------------------*- C++ -*----------------------------------*\
| =========                 |                                                 |
| \\      /  F ield         | OpenFOAM: The Open Source CFD Toolbox           |
|  \\    /   O peration     | Version:  4.1                                   |
|   \\  /    A nd           | Web:      www.OpenFOAM.org                      |
|    \\/     M anipulation  |                                                 |
\*---------------------------------------------------------------------------*/
FoamFile
{
    version     2.0;
    format      ascii;
    class       volScalarField;
    location    "0.005";
    object      T;
}
// * * * * * * * * * * * * * * * * * * * * * * * * * * * * * * * * * * * * * //

dimensions      [0 0 0 1 0 0 0];

internalField   nonuniform List<scalar> 
12225
(
0.625082
0.501659
0.482429
0.479444
0.478891
0.478742
0.478684
0.478651
0.478621
0.478581
0.478517
0.478397
0.47815
0.477615
0.476408
0.473605
0.466886
0.44987
0.617081
0.498208
0.480748
0.478494
0.478333
0.478405
0.478477
0.478523
0.478543
0.478536
0.478494
0.47839
0.478158
0.477644
0.476482
0.473808
0.467561
0.452803
0.621282
0.500687
0.482151
0.479347
0.478882
0.478765
0.478715
0.478682
0.47865
0.478609
0.478545
0.478428
0.478194
0.477697
0.476601
0.474146
0.468661
0.456834
0.621277
0.500416
0.481761
0.479002
0.478626
0.478583
0.478584
0.478587
0.478582
0.47856
0.478511
0.478408
0.478192
0.477734
0.476738
0.474574
0.46998
0.460874
0.621238
0.500487
0.481847
0.479071
0.478688
0.478639
0.478631
0.478625
0.478612
0.478585
0.478533
0.478431
0.478228
0.477807
0.476924
0.475081
0.471379
0.46456
0.621177
0.50051
0.481888
0.479082
0.478685
0.478633
0.478625
0.47862
0.478608
0.478583
0.478534
0.478439
0.478252
0.477878
0.477119
0.475603
0.472717
0.467715
0.621178
0.500547
0.481941
0.479115
0.478702
0.478645
0.478636
0.478629
0.478616
0.478591
0.478544
0.478455
0.478286
0.477959
0.477323
0.476113
0.473926
0.470317
0.621179
0.500558
0.481969
0.479136
0.478715
0.478654
0.478643
0.478635
0.478622
0.478597
0.478551
0.478468
0.478315
0.478028
0.47749
0.476507
0.4748
0.472075
0.621177
0.500563
0.481988
0.479155
0.478729
0.478665
0.478651
0.478642
0.478628
0.478604
0.478559
0.478481
0.478341
0.478088
0.47763
0.476824
0.475471
0.473372
0.621174
0.500565
0.482002
0.479173
0.478744
0.478676
0.478661
0.47865
0.478636
0.478611
0.478568
0.478495
0.478369
0.478149
0.477768
0.477123
0.476078
0.474501
0.621171
0.500564
0.482011
0.479187
0.478757
0.478688
0.478671
0.47866
0.478645
0.47862
0.478578
0.47851
0.478398
0.47821
0.477897
0.47739
0.476601
0.47544
0.621167
0.500561
0.482017
0.479198
0.478769
0.4787
0.478682
0.47867
0.478654
0.478629
0.47859
0.478527
0.478426
0.478266
0.478012
0.477618
0.477027
0.476185
0.621164
0.500557
0.482019
0.479205
0.478778
0.47871
0.478692
0.47868
0.478663
0.478639
0.478601
0.478542
0.478452
0.478315
0.478106
0.477799
0.477355
0.476741
0.621161
0.500553
0.482019
0.479209
0.478784
0.478716
0.4787
0.478688
0.478672
0.478648
0.478612
0.478557
0.478475
0.478355
0.47818
0.477933
0.477591
0.477131
0.621158
0.500549
0.482017
0.479209
0.478787
0.478721
0.478705
0.478695
0.478679
0.478656
0.478622
0.478569
0.478494
0.478385
0.478233
0.478026
0.477747
0.477384
0.621156
0.500546
0.482015
0.479208
0.478788
0.478724
0.478709
0.478698
0.478684
0.478662
0.478629
0.478579
0.478507
0.478407
0.478268
0.478084
0.477842
0.477535
0.621154
0.500544
0.482013
0.479207
0.478788
0.478724
0.47871
0.4787
0.478686
0.478665
0.478632
0.478584
0.478515
0.478419
0.478289
0.478117
0.477894
0.477614
0.621154
0.500543
0.482012
0.479207
0.478788
0.478724
0.47871
0.4787
0.478686
0.478666
0.478634
0.478586
0.478518
0.478423
0.478295
0.478129
0.477915
0.477648
0.621154
0.500543
0.482011
0.479206
0.478787
0.478724
0.47871
0.478699
0.478684
0.478663
0.478631
0.478583
0.478515
0.478421
0.478296
0.47813
0.477918
0.477655
0.621154
0.500544
0.482012
0.479206
0.478786
0.478721
0.478707
0.478696
0.478681
0.478659
0.478627
0.478579
0.478511
0.478417
0.478291
0.478125
0.477914
0.477652
0.621154
0.500545
0.482013
0.479205
0.478782
0.478716
0.478701
0.47869
0.478675
0.478652
0.478619
0.478571
0.478503
0.478409
0.478282
0.478117
0.477904
0.477641
0.621154
0.500547
0.482015
0.479203
0.478778
0.47871
0.478694
0.478682
0.478668
0.478646
0.478612
0.478564
0.478496
0.478401
0.478274
0.478108
0.477894
0.477628
0.621152
0.50055
0.482014
0.479194
0.478765
0.478697
0.478681
0.47867
0.478655
0.478634
0.478601
0.478553
0.478485
0.47839
0.478262
0.478094
0.47788
0.477612
0.621147
0.500559
0.482014
0.479186
0.478757
0.47869
0.478675
0.478665
0.478652
0.478631
0.478598
0.47855
0.478481
0.478385
0.478256
0.478087
0.47787
0.477599
0.621134
0.500551
0.481983
0.479148
0.478723
0.478661
0.478648
0.478641
0.478629
0.47861
0.478579
0.478532
0.478464
0.478368
0.478239
0.478069
0.47785
0.477577
0.621195
0.500593
0.48198
0.479153
0.478747
0.478692
0.478681
0.478671
0.478657
0.478634
0.4786
0.478549
0.478477
0.478378
0.478245
0.478071
0.477849
0.477571
0.621276
0.500532
0.481808
0.478971
0.47858
0.478544
0.478553
0.478564
0.478567
0.47856
0.478537
0.478496
0.478432
0.478339
0.47821
0.478039
0.477818
0.477538
0.621626
0.501078
0.482445
0.479562
0.479062
0.478918
0.478842
0.478788
0.478741
0.478696
0.478644
0.47858
0.478498
0.47839
0.478249
0.478068
0.477839
0.477547
0.617042
0.497852
0.480426
0.478231
0.478136
0.478257
0.478364
0.478438
0.478482
0.478501
0.478496
0.478466
0.478409
0.478319
0.478192
0.47802
0.477798
0.477508
0.625111
0.502056
0.482621
0.479575
0.479003
0.478835
0.478761
0.478717
0.478681
0.478644
0.4786
0.478541
0.478463
0.478358
0.478217
0.478035
0.477806
0.477503
0.000381315
0.000380036
0.000377426
0.00037352
0.000368375
0.000362042
0.000354587
0.000346085
0.000336617
0.00032628
0.000315172
0.000303396
0.000291057
0.000278264
0.000265123
0.000251742
0.000238225
0.000224672
0.000211177
0.000197829
0.000184711
0.000171895
0.000159447
0.000147423
0.000135872
0.000124831
0.000114331
0.000104394
9.50329e-05
8.62546e-05
7.80586e-05
7.04389e-05
6.33839e-05
5.68777e-05
5.09007e-05
4.54303e-05
4.04415e-05
3.59078e-05
3.18016e-05
2.80947e-05
2.47589e-05
2.17663e-05
1.90896e-05
1.67023e-05
1.45793e-05
1.26965e-05
1.10311e-05
9.56201e-06
8.26946e-06
7.13512e-06
6.14216e-06
5.27513e-06
4.51995e-06
3.86382e-06
3.29517e-06
2.80354e-06
2.37955e-06
2.01481e-06
1.70182e-06
1.43391e-06
1.20517e-06
1.01037e-06
8.44898e-07
7.04707e-07
5.86246e-07
4.86412e-07
4.02503e-07
3.32169e-07
2.73378e-07
2.2437e-07
1.83634e-07
1.4987e-07
1.21964e-07
9.89683e-08
8.00742e-08
6.45966e-08
5.19558e-08
4.16634e-08
3.3309e-08
2.65486e-08
2.10953e-08
1.67103e-08
1.31956e-08
1.03875e-08
8.15119e-09
6.37607e-09
4.97165e-09
3.86416e-09
2.99371e-09
2.31184e-09
1.77947e-09
1.36521e-09
1.04394e-09
7.95618e-10
6.04335e-10
4.57487e-10
3.45139e-10
2.59481e-10
1.94399e-10
1.45124e-10
1.07947e-10
7.99978e-11
5.90599e-11
4.3432e-11
3.1812e-11
2.32057e-11
1.68574e-11
1.21939e-11
8.78255e-12
6.29791e-12
4.49613e-12
3.19536e-12
2.26053e-12
1.59177e-12
1.11559e-12
7.78117e-13
5.40104e-13
3.73054e-13
2.56387e-13
1.75316e-13
1.19266e-13
8.07143e-14
5.43365e-14
3.63837e-14
2.42304e-14
1.6048e-14
1.05694e-14
6.92176e-15
4.50697e-15
2.91758e-15
1.87758e-15
1.2011e-15
7.63701e-16
4.82613e-16
3.03089e-16
1.89148e-16
1.17291e-16
7.22644e-17
4.42331e-17
2.68967e-17
1.62459e-17
9.74659e-18
5.80759e-18
3.43669e-18
2.01955e-18
1.17845e-18
6.82787e-19
3.92776e-19
2.24317e-19
1.2718e-19
7.15793e-20
3.99889e-20
2.2175e-20
1.22051e-20
6.6671e-21
3.61457e-21
1.9448e-21
1.03844e-21
5.50264e-22
2.89341e-22
1.50987e-22
7.8175e-23
4.01718e-23
2.04847e-23
1.03608e-23
5.20177e-24
2.59163e-24
1.28108e-24
6.28237e-25
3.05627e-25
1.47494e-25
7.06087e-26
3.35303e-26
1.57941e-26
7.3791e-27
3.41909e-27
1.5709e-27
7.15356e-28
3.22923e-28
1.44385e-28
0.000452877
0.000451205
0.000447961
0.000443161
0.000436879
0.000429197
0.000420201
0.000409986
0.000398654
0.000386318
0.000373095
0.000359106
0.000344477
0.000329334
0.000313801
0.000298003
0.00028206
0.000266087
0.000250195
0.000234485
0.00021905
0.000203975
0.000189334
0.000175193
0.000161605
0.000148615
0.000136257
0.000124555
0.000113525
0.000103174
9.35011e-05
8.44997e-05
7.61564e-05
6.84528e-05
6.13663e-05
5.48711e-05
4.89385e-05
4.35382e-05
3.86384e-05
3.42067e-05
3.02108e-05
2.66186e-05
2.33986e-05
2.05204e-05
1.79547e-05
1.56739e-05
1.36515e-05
1.1863e-05
1.02853e-05
8.89706e-06
7.67859e-06
6.61177e-06
5.68001e-06
4.86822e-06
4.16267e-06
3.55096e-06
3.02192e-06
2.5655e-06
2.17271e-06
1.83553e-06
1.54681e-06
1.30022e-06
1.09015e-06
9.11666e-07
7.60408e-07
6.32568e-07
5.24812e-07
4.34231e-07
3.58298e-07
2.94823e-07
2.41912e-07
1.97933e-07
1.61484e-07
1.31364e-07
1.06549e-07
8.61652e-08
6.94725e-08
5.58445e-08
4.4753e-08
3.57541e-08
2.84763e-08
2.26091e-08
1.78943e-08
1.41179e-08
1.11031e-08
8.70407e-09
6.80146e-09
5.29753e-09
4.11273e-09
3.18246e-09
2.4545e-09
1.88678e-09
1.44553e-09
1.10375e-09
8.39909e-10
6.36946e-10
4.81353e-10
3.62491e-10
2.72009e-10
2.03377e-10
1.51505e-10
1.12438e-10
8.31213e-11
6.12043e-11
4.4883e-11
3.27774e-11
2.38356e-11
1.72586e-11
1.24418e-11
8.92955e-12
6.37992e-12
4.53744e-12
3.21209e-12
2.26317e-12
1.58698e-12
1.10743e-12
7.68998e-13
5.31333e-13
3.65269e-13
2.49822e-13
1.69978e-13
1.15045e-13
7.745e-14
5.18588e-14
3.45331e-14
2.28679e-14
1.50578e-14
9.85835e-15
6.41689e-15
4.15231e-15
2.67096e-15
1.70774e-15
1.08523e-15
6.85369e-16
4.30128e-16
2.68232e-16
1.662e-16
1.02312e-16
6.25696e-17
3.80108e-17
2.29364e-17
1.37463e-17
8.1821e-18
4.83644e-18
2.83882e-18
1.65453e-18
9.57449e-19
5.50081e-19
3.13746e-19
1.77647e-19
9.98479e-20
5.57041e-20
3.08461e-20
1.69535e-20
9.24736e-21
5.00612e-21
2.6895e-21
1.43392e-21
7.58683e-22
3.98311e-22
2.07542e-22
1.07283e-22
5.50473e-23
2.80283e-23
1.41578e-23
7.0957e-24
3.52832e-24
1.74054e-24
8.51778e-25
4.13506e-25
1.99133e-25
9.51268e-26
4.50768e-26
2.11873e-26
9.87754e-27
4.56689e-27
2.09375e-27
9.51476e-28
4.28587e-28
1.91208e-28
0.000606986
0.000604472
0.000599829
0.000593098
0.000584397
0.000573844
0.000561567
0.0005477
0.00053239
0.000515787
0.000498048
0.000479336
0.000459813
0.000439645
0.000418995
0.000398023
0.000376885
0.000355729
0.000334696
0.000313916
0.000293509
0.000273582
0.00025423
0.000235535
0.000217565
0.000200378
0.000184015
0.000168508
0.000153875
0.000140127
0.000127263
0.000115272
0.000104139
9.38392e-05
8.43452e-05
7.56238e-05
6.76387e-05
6.03513e-05
5.37214e-05
4.77078e-05
4.22693e-05
3.73648e-05
3.29543e-05
2.89987e-05
2.54604e-05
2.23037e-05
1.94945e-05
1.70009e-05
1.47929e-05
1.28426e-05
1.11241e-05
9.6136e-06
8.28907e-06
7.13046e-06
6.11944e-06
5.23935e-06
4.47511e-06
3.81311e-06
3.24109e-06
2.74807e-06
2.3242e-06
1.96072e-06
1.64984e-06
1.38463e-06
1.159e-06
9.67538e-07
8.05524e-07
6.68803e-07
5.53748e-07
4.572e-07
3.76414e-07
3.09012e-07
2.52942e-07
2.06438e-07
1.67983e-07
1.36281e-07
1.10227e-07
8.88808e-08
7.14471e-08
5.72541e-08
4.57364e-08
3.642e-08
2.89089e-08
2.28732e-08
1.80392e-08
1.41805e-08
1.11109e-08
8.67705e-09
6.75395e-09
5.23959e-09
4.05116e-09
3.12172e-09
2.39734e-09
1.83474e-09
1.39931e-09
1.06348e-09
8.05384e-10
6.07743e-10
4.56939e-10
3.42292e-10
2.5545e-10
1.89904e-10
1.40615e-10
1.03694e-10
7.61497e-11
5.56846e-11
4.05437e-11
2.93903e-11
2.12102e-11
1.52377e-11
1.08969e-11
7.75636e-12
5.49493e-12
3.87422e-12
2.7183e-12
1.89788e-12
1.31847e-12
9.11316e-13
6.2667e-13
4.28696e-13
2.91723e-13
1.97457e-13
1.32929e-13
8.89987e-14
5.92552e-14
3.92296e-14
2.58233e-14
1.69e-14
1.09953e-14
7.11119e-15
4.57151e-15
2.92096e-15
1.85483e-15
1.17047e-15
7.33929e-16
4.57255e-16
2.83038e-16
1.74053e-16
1.06324e-16
6.45153e-17
3.88813e-17
2.32724e-17
1.38337e-17
8.16566e-18
4.78598e-18
2.78522e-18
1.60928e-18
9.23116e-19
5.25651e-19
2.97135e-19
1.66725e-19
9.28515e-20
5.13258e-20
2.8159e-20
1.53311e-20
8.28441e-21
4.44236e-21
2.364e-21
1.24842e-21
6.54129e-22
3.40209e-22
1.75561e-22
8.98901e-23
4.56629e-23
2.30114e-23
1.1504e-23
5.70523e-24
2.80681e-24
1.3698e-24
6.63139e-25
3.18454e-25
1.51698e-25
7.16795e-26
3.35952e-26
1.56173e-26
7.19995e-27
3.29151e-27
1.49164e-27
6.70079e-28
2.98155e-28
0.000866465
0.000862582
0.000855648
0.000845754
0.000833071
0.000817782
0.000800078
0.000780162
0.000758245
0.000734544
0.000709284
0.000682693
0.000655001
0.000626439
0.000597232
0.000567604
0.000537769
0.00050793
0.000478281
0.000448999
0.000420247
0.000392172
0.000364903
0.000338551
0.000313208
0.000288951
0.000265838
0.00024391
0.000223194
0.000203702
0.000185432
0.000168374
0.000152504
0.000137792
0.000124198
0.00011168
0.000100188
8.96705e-05
8.00738e-05
7.13422e-05
6.34201e-05
5.6252e-05
4.97833e-05
4.39611e-05
3.8734e-05
3.40531e-05
2.98715e-05
2.61453e-05
2.28328e-05
1.98952e-05
1.72964e-05
1.50028e-05
1.29834e-05
1.12097e-05
9.65554e-06
8.29713e-06
7.11268e-06
6.08248e-06
5.18868e-06
4.41517e-06
3.74747e-06
3.17259e-06
2.67893e-06
2.25613e-06
1.895e-06
1.58737e-06
1.32604e-06
1.10467e-06
9.17667e-07
7.60157e-07
6.27871e-07
5.17097e-07
4.24612e-07
3.4763e-07
2.83748e-07
2.309e-07
1.87318e-07
1.51489e-07
1.2213e-07
9.81497e-08
7.86264e-08
6.27841e-08
4.99717e-08
3.96442e-08
3.1348e-08
2.4706e-08
1.94067e-08
1.51932e-08
1.18545e-08
9.21822e-09
7.1438e-09
5.5172e-09
4.24622e-09
3.25663e-09
2.48885e-09
1.8953e-09
1.4381e-09
1.0872e-09
8.18878e-10
6.14468e-10
4.59315e-10
3.41976e-10
2.53576e-10
1.87244e-10
1.37676e-10
1.00792e-10
7.34654e-11
5.33085e-11
3.8507e-11
2.76875e-11
1.98154e-11
1.41145e-11
1.00056e-11
7.05849e-12
4.95492e-12
3.46091e-12
2.40515e-12
1.66289e-12
1.14373e-12
7.82517e-13
5.32532e-13
3.60453e-13
2.42643e-13
1.62433e-13
1.08125e-13
7.15645e-14
4.70921e-14
3.08068e-14
2.00337e-14
1.29498e-14
8.31999e-15
5.31256e-15
3.37108e-15
2.12561e-15
1.33171e-15
8.28937e-16
5.12616e-16
3.14912e-16
1.92166e-16
1.16471e-16
7.01107e-17
4.19135e-17
2.48827e-17
1.46683e-17
8.58545e-18
4.98928e-18
2.87863e-18
1.64879e-18
9.37425e-19
5.29074e-19
2.96398e-19
1.64796e-19
9.09449e-20
4.98124e-20
2.70727e-20
1.46045e-20
7.8175e-21
4.15274e-21
2.18939e-21
1.14529e-21
5.94443e-22
3.06099e-22
1.56371e-22
7.92449e-23
3.98375e-23
1.98659e-23
9.82697e-24
4.82197e-24
2.34704e-24
1.13319e-24
5.42718e-25
2.57826e-25
1.21494e-25
5.67862e-26
2.63253e-26
1.21033e-26
5.51811e-27
2.49413e-27
1.11764e-27
4.96167e-28
0.00126939
0.00126339
0.00125297
0.00123827
0.00121954
0.00119705
0.00117108
0.00114193
0.00110991
0.00107535
0.00103855
0.000999875
0.000959637
0.000918173
0.000875808
0.00083286
0.000789633
0.000746417
0.000703485
0.000661089
0.000619459
0.000578799
0.000539293
0.000501094
0.000464335
0.00042912
0.000395531
0.000363627
0.000333445
0.000305003
0.0002783
0.00025332
0.000230033
0.000208396
0.000188357
0.000169856
0.000152827
0.000137198
0.000122894
0.00010984
9.79577e-05
8.71706e-05
7.74027e-05
6.858e-05
6.06308e-05
5.3486e-05
4.70797e-05
4.13494e-05
3.62359e-05
3.16837e-05
2.76407e-05
2.40587e-05
2.08926e-05
1.81008e-05
1.5645e-05
1.34901e-05
1.16039e-05
9.95687e-06
8.5224e-06
7.27621e-06
6.19638e-06
5.26314e-06
4.45872e-06
3.76721e-06
3.17436e-06
2.66749e-06
2.23536e-06
1.86798e-06
1.55654e-06
1.29329e-06
1.07144e-06
8.85025e-07
7.28863e-07
5.98444e-07
4.89863e-07
3.99746e-07
3.2519e-07
2.63707e-07
2.1317e-07
1.71765e-07
1.37955e-07
1.10439e-07
8.81206e-08
7.00803e-08
5.55478e-08
4.38814e-08
3.45485e-08
2.71083e-08
2.11978e-08
1.65191e-08
1.28285e-08
9.92768e-09
7.65579e-09
5.88285e-09
4.50427e-09
3.43623e-09
2.61181e-09
1.9778e-09
1.49205e-09
1.12131e-09
8.39366e-10
6.25764e-10
4.64579e-10
3.43446e-10
2.52798e-10
1.85257e-10
1.35155e-10
9.81562e-11
7.09583e-11
5.10577e-11
3.65649e-11
2.60606e-11
1.84838e-11
1.30454e-11
9.16124e-12
6.40105e-12
4.44957e-12
3.07699e-12
2.11663e-12
1.44827e-12
9.85615e-13
6.67097e-13
4.49016e-13
3.00533e-13
2.00007e-13
1.32339e-13
8.70527e-14
5.69244e-14
3.70004e-14
2.39044e-14
1.53491e-14
9.79455e-15
6.2108e-15
3.91321e-15
2.44966e-15
1.5235e-15
9.41277e-16
5.77696e-16
3.52168e-16
2.13221e-16
1.28208e-16
7.65571e-17
4.53959e-17
2.6728e-17
1.56239e-17
9.06767e-18
5.22473e-18
2.98845e-18
1.69666e-18
9.56209e-19
5.34909e-19
2.9695e-19
1.6363e-19
8.94876e-20
4.8556e-20
2.61543e-20
1.39797e-20
7.41425e-21
3.90156e-21
2.03692e-21
1.05501e-21
5.42082e-22
2.76302e-22
1.39702e-22
7.00666e-23
3.48577e-23
1.72015e-23
8.42e-24
4.08825e-24
1.96898e-24
9.40638e-25
4.45736e-25
2.09509e-25
9.76756e-26
4.51659e-26
2.0713e-26
9.41995e-27
4.24757e-27
1.89914e-27
8.41418e-28
0.00187297
0.0018638
0.00184823
0.00182645
0.00179884
0.00176576
0.00172763
0.00168489
0.00163798
0.00158739
0.00153358
0.00147704
0.00141826
0.00135771
0.00129588
0.00123321
0.00117014
0.0011071
0.00104446
0.000982605
0.000921847
0.000862483
0.000804771
0.000748932
0.000695152
0.000643581
0.000594336
0.0005475
0.000503128
0.000461245
0.000421852
0.000384929
0.000350435
0.000318313
0.000288491
0.000260887
0.00023541
0.000211961
0.000190437
0.000170732
0.000152739
0.000136351
0.000121461
0.000107965
9.57625e-05
8.47555e-05
7.48504e-05
6.59579e-05
5.79932e-05
5.08762e-05
4.45318e-05
3.88894e-05
3.38833e-05
2.94525e-05
2.55402e-05
2.20944e-05
1.90668e-05
1.64134e-05
1.40939e-05
1.20713e-05
1.03123e-05
8.78663e-06
7.46681e-06
6.32817e-06
5.34854e-06
4.50807e-06
3.78903e-06
3.17564e-06
2.6539e-06
2.21142e-06
1.83728e-06
1.52188e-06
1.25682e-06
1.03475e-06
8.49285e-07
6.94885e-07
5.6676e-07
4.60785e-07
3.7342e-07
3.01636e-07
2.42853e-07
1.9488e-07
1.55863e-07
1.2424e-07
9.86985e-08
7.81416e-08
6.16548e-08
4.84792e-08
3.79873e-08
2.96622e-08
2.30803e-08
1.78953e-08
1.38255e-08
1.06427e-08
8.16277e-09
6.23759e-09
4.74864e-09
3.60144e-09
2.72091e-09
2.04765e-09
1.53476e-09
1.14555e-09
8.5142e-10
6.3007e-10
4.64215e-10
3.40491e-10
2.4861e-10
1.8069e-10
1.30714e-10
9.41138e-11
6.74379e-11
4.80888e-11
3.41229e-11
2.40924e-11
1.69246e-11
1.18285e-11
8.22408e-12
5.68798e-12
3.91304e-12
2.67751e-12
1.82212e-12
1.23316e-12
8.29909e-13
5.55358e-13
3.695e-13
2.44409e-13
1.60712e-13
1.05045e-13
6.82455e-14
4.4067e-14
2.8279e-14
1.80339e-14
1.14275e-14
7.19473e-15
4.50027e-15
2.79647e-15
1.72625e-15
1.05848e-15
6.44633e-16
3.89895e-16
2.34189e-16
1.39689e-16
8.27376e-17
4.86569e-17
2.84073e-17
1.64663e-17
9.47586e-18
5.41296e-18
3.06891e-18
1.72728e-18
9.6494e-19
5.34883e-19
2.94332e-19
1.60744e-19
8.71093e-20
4.68426e-20
2.49933e-20
1.32307e-20
6.94863e-21
3.62037e-21
1.87123e-21
9.59419e-22
4.87958e-22
2.46173e-22
1.23189e-22
6.11471e-23
3.01056e-23
1.47023e-23
7.12188e-24
3.42195e-24
1.63088e-24
7.70969e-25
3.61507e-25
1.68134e-25
7.75594e-26
3.5484e-26
1.61e-26
7.24351e-27
3.23191e-27
1.42919e-27
0.00275933
0.0027455
0.00272241
0.0026904
0.00264994
0.00260159
0.00254593
0.00248358
0.00241519
0.00234146
0.00226306
0.00218072
0.00209512
0.00200697
0.00191694
0.00182571
0.0017339
0.00164211
0.00155091
0.0014608
0.00137226
0.0012857
0.00120149
0.00111995
0.00104134
0.00096588
0.000893729
0.000825011
0.000759804
0.000698148
0.000640048
0.000585478
0.000534385
0.000486693
0.000442305
0.00040111
0.000362982
0.000327788
0.000295385
0.000265628
0.000238369
0.000213459
0.000190749
0.000170095
0.000151354
0.000134389
0.000119068
0.000105262
9.28514e-05
8.17209e-05
7.17618e-05
6.28719e-05
5.49552e-05
4.79222e-05
4.16894e-05
3.61794e-05
3.13205e-05
2.70465e-05
2.32966e-05
2.00151e-05
1.71511e-05
1.4658e-05
1.24938e-05
1.06201e-05
9.00262e-06
7.61012e-06
6.41478e-06
5.39168e-06
4.51857e-06
3.77569e-06
3.14553e-06
2.61262e-06
2.16336e-06
1.78581e-06
1.46954e-06
1.20546e-06
9.85667e-07
8.03348e-07
6.52617e-07
5.28423e-07
4.26442e-07
3.42991e-07
2.74939e-07
2.19641e-07
1.74864e-07
1.38737e-07
1.09692e-07
8.64246e-08
6.78537e-08
5.30848e-08
4.13824e-08
3.21438e-08
2.48771e-08
1.91826e-08
1.47367e-08
1.12788e-08
8.59943e-09
6.53134e-09
4.94129e-09
3.72335e-09
2.794e-09
2.08773e-09
1.55325e-09
1.15051e-09
8.48396e-10
6.22779e-10
4.55061e-10
3.30964e-10
2.39573e-10
1.7259e-10
1.23733e-10
8.82714e-11
6.266e-11
4.42557e-11
3.10975e-11
2.17386e-11
1.51167e-11
1.04561e-11
7.19357e-12
4.92216e-12
3.34945e-12
2.26655e-12
1.52511e-12
1.02034e-12
6.78675e-13
4.48765e-13
2.94971e-13
1.92713e-13
1.25139e-13
8.07603e-14
5.17956e-14
3.30097e-14
2.09029e-14
1.31507e-14
8.21913e-15
5.10313e-15
3.14742e-15
1.92817e-15
1.17317e-15
7.0886e-16
4.25329e-16
2.53432e-16
1.49944e-16
8.80809e-17
5.13619e-17
2.97367e-17
1.7092e-17
9.75142e-18
5.52118e-18
3.10362e-18
1.7316e-18
9.58746e-19
5.26793e-19
2.87228e-19
1.55392e-19
8.34116e-20
4.4422e-20
2.34705e-20
1.23022e-20
6.39675e-21
3.29944e-21
1.68815e-21
8.56767e-22
4.31307e-22
2.15365e-22
1.06665e-22
5.23997e-23
2.55326e-23
1.23401e-23
5.91572e-24
2.81292e-24
1.32669e-24
6.20647e-25
2.87988e-25
1.32541e-25
6.05001e-26
2.73892e-26
1.22962e-26
5.47528e-27
2.41669e-27
0.00404336
0.00402272
0.00398882
0.00394213
0.00388336
0.00381325
0.00373263
0.00364238
0.00354345
0.00343679
0.00332341
0.00320433
0.00308055
0.00295308
0.0028229
0.00269096
0.00255816
0.00242537
0.00229337
0.00216291
0.00203464
0.00190917
0.00178701
0.0016686
0.00155433
0.0014445
0.00133934
0.00123903
0.00114368
0.00105335
0.000968064
0.000887782
0.00081244
0.000741937
0.000676146
0.000614919
0.000558088
0.000505471
0.000456878
0.000412109
0.000370963
0.000333235
0.000298722
0.000267222
0.000238539
0.00021248
0.00018886
0.000167498
0.000148225
0.000130875
0.000115294
0.000101334
8.88565e-05
7.77305e-05
6.78341e-05
5.90531e-05
5.12814e-05
4.44205e-05
3.83792e-05
3.30736e-05
2.84264e-05
2.4367e-05
2.08308e-05
1.77587e-05
1.50976e-05
1.27989e-05
1.08191e-05
9.11904e-06
7.66346e-06
6.42101e-06
5.36374e-06
4.46685e-06
3.70842e-06
3.06912e-06
2.53197e-06
2.08214e-06
1.70669e-06
1.39435e-06
1.13542e-06
9.21482e-07
7.4534e-07
6.00822e-07
4.8267e-07
3.86416e-07
3.08285e-07
2.45092e-07
1.94168e-07
1.53281e-07
1.20572e-07
9.45023e-08
7.38015e-08
5.74248e-08
4.45174e-08
3.43827e-08
2.64551e-08
2.02778e-08
1.54828e-08
1.17754e-08
8.92012e-09
6.72935e-09
5.05515e-09
3.78108e-09
2.81568e-09
2.0874e-09
1.54049e-09
1.13165e-09
8.2745e-10
6.02173e-10
4.36137e-10
3.14354e-10
2.25467e-10
1.60912e-10
1.14263e-10
8.07247e-11
5.67364e-11
3.96681e-11
2.75877e-11
1.90833e-11
1.3129e-11
8.98305e-12
6.11224e-12
4.13551e-12
2.78213e-12
1.86085e-12
1.23737e-12
8.179e-13
5.3738e-13
3.50923e-13
2.27759e-13
1.46907e-13
9.41634e-14
5.99729e-14
3.7951e-14
2.38586e-14
1.48997e-14
9.24342e-15
5.69621e-15
3.48652e-15
2.11938e-15
1.27932e-15
7.66829e-16
4.56448e-16
2.69777e-16
1.58302e-16
9.21983e-17
5.332e-17
3.06121e-17
1.74447e-17
9.86642e-18
5.53844e-18
3.0854e-18
1.70567e-18
9.35661e-19
5.09283e-19
2.75038e-19
1.47366e-19
7.83352e-20
4.13095e-20
2.16103e-20
1.12144e-20
5.77272e-21
2.94756e-21
1.49284e-21
7.49938e-22
3.73673e-22
1.84676e-22
9.05266e-23
4.40143e-23
2.12258e-23
1.01528e-23
4.81689e-24
2.26675e-24
1.05803e-24
4.89836e-25
2.24933e-25
1.02446e-25
4.62782e-26
2.0733e-26
9.21377e-27
4.05918e-27
0.00588239
0.00585193
0.00580257
0.00573509
0.00565045
0.00554969
0.00543395
0.00530449
0.00516261
0.0050097
0.00484717
0.00467648
0.00449905
0.00431634
0.00412972
0.00394055
0.00375011
0.00355962
0.00337019
0.00318287
0.0029986
0.00281819
0.00264239
0.00247182
0.002307
0.00214837
0.00199625
0.00185091
0.00171249
0.00158111
0.00145678
0.00133947
0.00122911
0.00112557
0.00102868
0.00093825
0.000854059
0.000775867
0.000703422
0.000636457
0.0005747
0.000517878
0.000465714
0.000417933
0.000374267
0.00033445
0.000298226
0.000265344
0.000235566
0.000208659
0.000184405
0.000162593
0.000143024
0.000125509
0.000109873
9.5948e-05
8.35783e-05
7.26183e-05
6.29329e-05
5.43964e-05
4.68928e-05
4.03152e-05
3.45653e-05
2.95531e-05
2.51964e-05
2.14206e-05
1.81577e-05
1.53467e-05
1.29321e-05
1.08646e-05
9.09964e-06
7.59781e-06
6.32396e-06
5.24697e-06
4.33942e-06
3.5772e-06
2.93919e-06
2.40696e-06
1.96451e-06
1.59797e-06
1.29539e-06
1.04649e-06
8.42487e-07
6.75883e-07
5.40318e-07
4.30415e-07
3.41645e-07
2.70209e-07
2.12938e-07
1.67194e-07
1.30795e-07
1.01941e-07
7.91548e-08
6.12293e-08
4.71818e-08
3.62162e-08
2.76899e-08
2.10867e-08
1.59925e-08
1.20777e-08
9.0819e-09
6.79916e-09
5.06746e-09
3.75971e-09
2.77665e-09
2.0411e-09
1.49335e-09
1.08738e-09
7.87959e-10
5.68193e-10
4.07693e-10
2.91063e-10
2.06742e-10
1.46094e-10
1.02699e-10
7.18131e-11
4.99471e-11
3.45508e-11
2.37697e-11
1.62624e-11
1.10639e-11
7.48453e-12
5.03404e-12
3.36614e-12
2.23758e-12
1.47849e-12
9.70996e-13
6.33781e-13
4.11132e-13
2.65042e-13
1.69785e-13
1.08068e-13
6.83392e-14
4.29316e-14
2.67893e-14
1.66064e-14
1.02252e-14
6.25328e-15
3.79781e-15
2.29024e-15
1.37142e-15
8.15536e-16
4.81525e-16
2.82259e-16
1.64241e-16
9.48696e-17
5.4394e-17
3.09541e-17
1.74823e-17
9.79869e-18
5.4501e-18
3.00802e-18
1.64731e-18
8.95086e-19
4.82535e-19
2.58077e-19
1.36932e-19
7.20743e-20
3.76323e-20
1.94908e-20
1.00133e-20
5.1026e-21
2.57907e-21
1.29296e-21
6.42916e-22
3.17076e-22
1.55101e-22
7.52502e-23
3.62114e-23
1.72834e-23
8.18206e-24
3.84193e-24
1.78934e-24
8.2659e-25
3.78743e-25
1.72127e-25
7.75911e-26
3.46904e-26
1.53863e-26
6.76579e-27
0.00848798
0.00844346
0.00837229
0.00827564
0.00815483
0.00801134
0.00784673
0.00766274
0.00746122
0.00724409
0.00701335
0.00677105
0.00651921
0.00625986
0.00599496
0.00572639
0.00545596
0.00518537
0.00491618
0.00464983
0.00438762
0.0041307
0.00388009
0.00363666
0.00340112
0.00317409
0.00295602
0.00274726
0.00254806
0.00235857
0.00217883
0.00200883
0.00184846
0.00169758
0.00155598
0.00142342
0.00129961
0.00118425
0.00107701
0.000977533
0.000885475
0.000800467
0.000722144
0.000650138
0.000584086
0.000523632
0.000468423
0.00041812
0.00037239
0.000330913
0.000293383
0.000259503
0.000228992
0.000201583
0.000177021
0.000155065
0.000135489
0.000118081
0.000102641
8.89843e-05
7.6937e-05
6.6339e-05
5.70424e-05
4.89105e-05
4.18183e-05
3.56509e-05
3.03038e-05
2.5682e-05
2.16994e-05
1.82783e-05
1.53489e-05
1.28485e-05
1.07213e-05
8.91746e-06
7.39301e-06
6.109e-06
5.03121e-06
4.12965e-06
3.37814e-06
2.75392e-06
2.23729e-06
1.81124e-06
1.46117e-06
1.17458e-06
9.40844e-07
7.50912e-07
5.97156e-07
4.73153e-07
3.73526e-07
2.93786e-07
2.30207e-07
1.79708e-07
1.39754e-07
1.08265e-07
8.35443e-08
6.4214e-08
4.91591e-08
3.7481e-08
2.84566e-08
2.15119e-08
1.61906e-08
1.21312e-08
9.04848e-09
6.71814e-09
4.96481e-09
3.65183e-09
2.6733e-09
1.94755e-09
1.4119e-09
1.01852e-09
7.31066e-10
5.22082e-10
3.70926e-10
2.62165e-10
1.8432e-10
1.28899e-10
8.96551e-11
6.20176e-11
4.26636e-11
2.91861e-11
1.98536e-11
1.3428e-11
9.02941e-12
6.03602e-12
4.01099e-12
2.64928e-12
1.73915e-12
1.13461e-12
7.35649e-13
4.73991e-13
3.03461e-13
1.93033e-13
1.21988e-13
7.65802e-14
4.77475e-14
2.95761e-14
1.81969e-14
1.11191e-14
6.74714e-15
4.06543e-15
2.43224e-15
1.4448e-15
8.52068e-16
4.98851e-16
2.89912e-16
1.67238e-16
9.5753e-17
5.44115e-17
3.06848e-17
1.71721e-17
9.53611e-18
5.25461e-18
2.87283e-18
1.55833e-18
8.38621e-19
4.47727e-19
2.37129e-19
1.24584e-19
6.49275e-20
3.35641e-20
1.72103e-20
8.75297e-21
4.41541e-21
2.20916e-21
1.09628e-21
5.39568e-22
2.63393e-22
1.27525e-22
6.12386e-23
2.91672e-23
1.37787e-23
6.45607e-24
3.00042e-24
1.3831e-24
6.32387e-25
2.86797e-25
1.29015e-25
5.7566e-26
2.5483e-26
1.11846e-26
0.0121395
0.0120752
0.0119735
0.0118363
0.0116655
0.0114631
0.0112312
0.0109723
0.0106889
0.0103836
0.0100594
0.00971902
0.0093653
0.00900105
0.00862901
0.0082518
0.0078719
0.00749164
0.00711319
0.00673851
0.00636937
0.00600735
0.00565384
0.00531
0.00497684
0.00465518
0.00434565
0.00404875
0.00376483
0.0034941
0.00323665
0.0029925
0.00276154
0.00254359
0.00233841
0.00214571
0.00196514
0.00179631
0.00163881
0.00149219
0.001356
0.00122978
0.00111304
0.00100531
0.000906115
0.00081497
0.000731412
0.000654982
0.000585231
0.000521722
0.000464032
0.000411753
0.000364492
0.000321873
0.000283535
0.000249137
0.000218353
0.000190877
0.000166418
0.000144704
0.000125481
0.000108511
9.35725e-05
8.04606e-05
6.89861e-05
5.89744e-05
5.02656e-05
4.27136e-05
3.61852e-05
3.05596e-05
2.57275e-05
2.15906e-05
1.80605e-05
1.50584e-05
1.25139e-05
1.03647e-05
8.55563e-06
7.03829e-06
5.77014e-06
4.71405e-06
3.83775e-06
3.11331e-06
2.51661e-06
2.02698e-06
1.62671e-06
1.30073e-06
1.03626e-06
8.22509e-07
6.50422e-07
5.12409e-07
4.02153e-07
3.14414e-07
2.44869e-07
1.89961e-07
1.46782e-07
1.12964e-07
8.65837e-08
6.6085e-08
5.02221e-08
3.79994e-08
2.86232e-08
2.1463e-08
1.60201e-08
1.1902e-08
8.801e-09
6.47707e-09
4.74387e-09
3.45755e-09
2.5076e-09
1.80957e-09
1.29925e-09
9.2808e-10
6.59512e-10
4.66206e-10
3.2781e-10
2.29259e-10
1.59462e-10
1.103e-10
7.58725e-11
5.18984e-11
3.52978e-11
2.38688e-11
1.60461e-11
1.07234e-11
7.12337e-12
4.70322e-12
3.08616e-12
2.01237e-12
1.30414e-12
8.3984e-13
5.37381e-13
3.41621e-13
2.15749e-13
1.3535e-13
8.43399e-14
5.21999e-14
3.20872e-14
1.95877e-14
1.18739e-14
7.14705e-15
4.27124e-15
2.53425e-15
1.49274e-15
8.72832e-16
5.0659e-16
2.91834e-16
1.66857e-16
9.46791e-17
5.33139e-17
2.97906e-17
1.65176e-17
9.08702e-18
4.95999e-18
2.68599e-18
1.44302e-18
7.69074e-19
4.06606e-19
2.13242e-19
1.10931e-19
5.72396e-20
2.92953e-20
1.48711e-20
7.48733e-21
3.73889e-21
1.85176e-21
9.09602e-22
4.43141e-22
2.14121e-22
1.02614e-22
4.87735e-23
2.29933e-23
1.07513e-23
4.98625e-24
2.29373e-24
1.04658e-24
4.73669e-25
2.12649e-25
9.46971e-26
4.18398e-26
1.83294e-26
0.0171991
0.0171071
0.0169633
0.0167705
0.0165312
0.0162484
0.015925
0.0155642
0.0151697
0.0147452
0.0142945
0.0138215
0.0133302
0.0128244
0.0123078
0.0117841
0.0112565
0.0107284
0.0102025
0.00968148
0.0091678
0.00866353
0.00817051
0.00769032
0.0072243
0.00677355
0.00633895
0.00592117
0.0055207
0.00513786
0.00477283
0.00442563
0.00409621
0.00378436
0.00348982
0.00321224
0.00295122
0.0027063
0.00247696
0.00226268
0.00206288
0.00187698
0.00170438
0.00154447
0.00139664
0.00126027
0.00113475
0.00101949
0.000913878
0.000817336
0.000729294
0.000649195
0.000576501
0.000510692
0.000451266
0.000397743
0.000349663
0.000306588
0.000268101
0.00023381
0.000203342
0.000176349
0.000152504
0.000131502
0.00011306
9.69158e-05
8.28259e-05
7.05679e-05
5.99375e-05
5.07485e-05
4.28313e-05
3.60327e-05
3.02143e-05
2.52517e-05
2.10336e-05
1.74608e-05
1.44454e-05
1.19095e-05
9.78452e-06
8.01038e-06
6.53463e-06
5.31164e-06
4.30193e-06
3.47148e-06
2.79108e-06
2.23575e-06
1.78425e-06
1.41859e-06
1.12361e-06
8.86573e-07