/*--------------------------------*- C++ -*----------------------------------*\
| =========                 |                                                 |
| \\      /  F ield         | OpenFOAM: The Open Source CFD Toolbox           |
|  \\    /   O peration     | Version:  4.1                                   |
|   \\  /    A nd           | Web:      www.OpenFOAM.org                      |
|    \\/     M anipulation  |                                                 |
\*---------------------------------------------------------------------------*/
FoamFile
{
    version     2.0;
    format      ascii;
    class       volScalarField;
    location    "0.1";
    object      T;
}
// * * * * * * * * * * * * * * * * * * * * * * * * * * * * * * * * * * * * * //

dimensions      [0 0 0 1 0 0 0];

internalField   nonuniform List<scalar> 
12225
(
1.11552
1.23317
1.29917
1.34126
1.36974
1.38851
1.40119
1.41004
1.41642
1.42116
1.42479
1.42763
1.4299
1.43177
1.4333
1.43469
1.43581
1.43518
0.860947
0.707839
0.632408
0.594821
0.576427
0.569644
0.569414
0.572758
0.577971
0.584077
0.590513
0.596954
0.603214
0.609181
0.61481
0.619994
0.624958
0.628865
1.03458
1.08006
1.10414
1.11423
1.11556
1.11189
1.10559
1.09802
1.08996
1.08185
1.07398
1.06647
1.05942
1.05284
1.04677
1.04114
1.0362
1.0315
1.00165
0.998855
0.992981
0.988432
0.986044
0.98539
0.98593
0.9872
0.988859
0.990683
0.992533
0.994323
0.995998
0.997539
0.998939
1.00018
1.0013
1.00234
1.00023
1.00039
1.00026
1.00043
1.00067
1.0008
1.00084
1.0008
1.00072
1.00062
1.00051
1.00042
1.00033
1.00027
1.00023
1.00019
1.00021
1.00021
0.999584
0.999244
0.998899
0.998714
0.99862
0.998535
0.998453
0.99839
0.998342
0.998302
0.998271
0.998244
0.99822
0.998204
0.998189
0.998174
0.998175
0.998153
0.999929
1.00011
1.00016
1.00019
1.00023
1.00025
1.00026
1.00026
1.00026
1.00026
1.00026
1.00025
1.00024
1.00023
1.00022
1.00021
1.00021
1.00019
0.999971
1.00007
1.00006
1.00002
1.00001
1.00001
1.00001
1
1
1
1
1.00001
1.00002
1.00002
1.00002
1.00003
1.00003
1.00003
0.999979
1.00004
1.00003
1.00002
1.00002
1.00002
1.00002
1.00002
1.00002
1.00003
1.00003
1.00003
1.00003
1.00003
1.00003
1.00003
1.00003
1.00003
0.999978
1.00002
1.00001
0.999998
0.999998
1
0.999999
0.999997
0.999996
0.999997
0.999995
0.999996
1
0.999999
0.999995
1
0.999995
0.999997
0.999985
1.00001
1.00001
1
1
0.999997
0.999997
0.999997
1
1
1
0.999998
0.999997
1
1
1
0.999997
1
0.999988
1.00001
1.00001
0.999999
0.999997
0.999999
0.999998
0.999999
0.999998
0.999996
0.999996
0.999997
0.999999
0.999999
1
1
0.999996
1
0.999989
1.00001
1.00001
1
0.999999
0.999999
1
1
0.999999
0.999998
1
0.999998
0.999999
1
0.999999
1
0.999993
0.999997
0.999991
1
1.00001
1.00001
1
1
0.999997
0.999998
0.999999
0.999998
0.999996
0.999998
0.999997
0.999997
0.999997
0.999997
0.999994
1
0.999993
1
1.00001
1.00001
1
1
0.999998
0.999999
0.999999
0.999999
1
0.999999
0.999999
1
0.999995
0.999998
0.999992
0.999998
0.999994
1
1.00001
1
1
1
1
0.999999
0.999999
0.999997
0.999997
1
1
1
0.999999
0.999998
0.999993
0.999999
0.999993
1
1
1
1
1
1
1
0.999999
1
1
0.999999
0.999998
0.999999
1
1
0.999997
0.999999
0.999995
1
1
1.00001
1.00001
1.00001
1
1
1
1
1
1
1.00001
1.00001
1
1
0.999997
1
0.999995
1
1
1
1
1
1.00001
1
0.999999
1
1
1
0.999997
0.999995
0.999999
0.999997
0.999991
0.999995
0.999992
1
1
1
1
1
1.00001
1.00001
1.00001
1
1.00001
1.00001
1.00001
1.00001
1.00001
1.00001
1.00001
1.00002
0.999991
0.999999
1.00001
1
0.999996
0.999991
0.999991
0.999988
0.999986
0.999985
0.999981
0.999979
0.999975
0.999972
0.999972
0.999972
0.999964
0.999966
0.999988
1
1.00001
1.00001
1.00002
1.00002
1.00003
1.00004
1.00004
1.00005
1.00006
1.00006
1.00007
1.00007
1.00008
1.00008
1.00008
1.00009
0.999982
1
1
0.999974
0.999943
0.999921
0.9999
0.999878
0.99986
0.999842
0.999828
0.999815
0.999802
0.999795
0.999786
0.999779
0.99977
0.999767
0.999965
1.00007
1.00018
1.00024
1.0003
1.00037
1.00043
1.00049
1.00054
1.00058
1.00062
1.00065
1.00067
1.00069
1.00071
1.00072
1.00073
1.00074
0.999753
0.999568
0.999366
0.999131
0.998913
0.998704
0.998509
0.998342
0.998201
0.998088
0.998002
0.997936
0.997889
0.997856
0.997838
0.997829
0.997822
0.997814
0.999992
1.00043
1.00095
1.00167
1.00247
1.00316
1.00368
1.00405
1.00429
1.00442
1.00447
1.00446
1.0044
1.00432
1.00421
1.00409
1.00396
1.00386
0.999945
0.996247
0.990161
0.98452
0.980273
0.977358
0.975527
0.97452
0.974115
0.974128
0.974432
0.974931
0.975556
0.976259
0.977006
0.977763
0.978549
0.979195
1.0214
1.05634
1.0798
1.09471
1.10362
1.10848
1.11069
1.11118
1.11056
1.10922
1.10743
1.10537
1.10317
1.1009
1.09862
1.09638
1.09417
1.09224
0.922802
0.82784
0.774466
0.743959
0.725618
0.714657
0.708441
0.705217
0.70388
0.70374
0.704359
0.705454
0.70684
0.708395
0.710039
0.711701
0.713398
0.714943
1.06291
1.12901
1.16726
1.19166
1.20826
1.21975
1.22781
1.23361
1.2379
1.24113
1.24365
1.24564
1.24725
1.24858
1.24971
1.25063
1.25155
1.25214
1.13594e-17
7.2532e-18
1.05099e-18
-2.35661e-18
1.18206e-20
-4.50316e-17
1.2779e-17
7.66587e-15
-5.88802e-14
-5.63494e-13
3.20684e-12
1.6932e-11
-4.19445e-11
-3.10228e-10
-1.53412e-10
2.45129e-09
7.17487e-09
3.03997e-09
-3.14706e-08
-1.03362e-07
-1.61445e-07
-7.21489e-08
3.43294e-07
1.20383e-06
2.43629e-06
3.67946e-06
4.27462e-06
3.35681e-06
2.46427e-08
-6.45541e-06
-1.64576e-05
-2.98555e-05
-4.59526e-05
-6.34876e-05
-8.07083e-05
-9.54958e-05
-0.000105521
-0.000108414
-0.000101926
-8.40799e-05
-5.32888e-05
-8.44787e-06
5.10077e-05
0.000125076
0.00021319
0.000314245
0.00042664
0.000548354
0.000677002
0.000809905
0.000944187
0.00107685
0.00120485
0.0013252
0.00143498
0.00153147
0.00161217
0.00167483
0.0017175
0.00173858
0.00173679
0.00171122
0.00166132
0.00158691
0.00148815
0.00136555
0.00121995
0.00105246
0.000864512
0.00065779
0.000434202
0.000195869
-5.49071e-05
-0.000315668
-0.000583828
-0.0008567
-0.00113151
-0.00140545
-0.00167565
-0.00193925
-0.0021934
-0.00243525
-0.002662
-0.00287094
-0.00305938
-0.00322472
-0.00336446
-0.00347618
-0.00355755
-0.00360636
-0.0036205
-0.00359793
-0.00353672
-0.00343501
-0.00329106
-0.00310316
-0.00286967
-0.00258901
-0.00225965
-0.00188024
-0.00145011
-0.000971322
-0.000456344
9.5608e-05
0.000682196
0.00130158
0.00195165
0.00263019
0.00333485
0.00406319
0.00481263
0.00558047
0.00636394
0.00716013
0.00796606
0.00877864
0.00959471
0.010411
0.0112243
0.0120311
0.012828
0.0136117
0.0143787
0.0151254
0.0158484
0.0165441
0.0172091
0.0178398
0.018433
0.0189851
0.0194932
0.019954
0.0203645
0.020722
0.0210236
0.0212666
0.0214488
0.0215681
0.0216226
0.0216107
0.0215309
0.0213818
0.021163
0.020874
0.0205148
0.020085
0.019585
0.0190166
0.0183811
0.0176787
0.0169117
0.0160847
0.0151969
0.0142517
0.0132589
0.0122144
0.0111245
0.00999728
0.00882699
0.00762242
0.0063231
0.0049382
0.00360334
0.00235203
0.000734689
-0.00130262
-0.00332986
-0.00528912
-0.0071754
-0.00898673
-0.010725
-0.0123968
-0.0140141
-0.0155928
-0.0171664
-0.0187521
-0.0205244
-0.0222275
-0.0253309
-0.0267545
1.12416e-16
2.94508e-17
5.8534e-18
-8.11959e-17
5.58003e-16
7.4569e-15
-4.54389e-14
-2.9059e-13
1.01395e-12
7.28885e-12
-3.20312e-12
-1.00759e-10
-2.0005e-10
4.17306e-10
2.6774e-09
4.50554e-09
-3.41847e-09
-3.40924e-08
-8.38485e-08
-1.0198e-07
2.13522e-08
4.17158e-07
1.14382e-06
2.07111e-06
2.79982e-06
2.66811e-06
8.63972e-07
-3.3748e-06
-1.05189e-05
-2.05192e-05
-3.2641e-05
-4.53908e-05
-5.65491e-05
-6.3301e-05
-6.24469e-05
-5.06653e-05
-2.47984e-05
1.78661e-05
7.93415e-05
0.000160734
0.000262093
0.000382325
0.000519169
0.00066924
0.000828124
0.000990518
0.00115041
0.00130128
0.00143636
0.00154879
0.0016319
0.00167936
0.00168543
0.00164508
0.00155419
0.00140971
0.00120968
0.000953337
0.000641183
0.000274966
-0.000142321
-0.00060648
-0.00111216
-0.00165296
-0.00222147
-0.00280945
-0.00340791
-0.00400725
-0.00459739
-0.0051679
-0.00570816
-0.00620745
-0.00665515
-0.0070408
-0.00735423
-0.00758567
-0.00772585
-0.00776612
-0.00769844
-0.0075155
-0.00721079
-0.0067786
-0.00621407
-0.00551318
-0.0046728
-0.00369067
-0.00256539
-0.0012964
0.000116046
0.0016709
0.00336638
0.0052
0.00716859
0.00926841
0.0114952
0.0138441
0.0163099
0.0188871
0.0215697
0.0243518
0.0272281
0.0301967
0.0332681
0.0364393
0.0397105
0.0430814
0.0465518
0.0501218
0.0537915
0.0575609
0.0614301
0.0653987
0.0694665
0.0736331
0.0778976
0.0822589
0.0867155
0.0912657
0.0959067
0.100636
0.10545
0.110344
0.115315
0.120356
0.125462
0.130627
0.135843
0.141103
0.146398
0.151718
0.157054
0.162397
0.167734
0.173056
0.17835
0.183604
0.188805
0.193941
0.199
0.203967
0.208829
0.213575
0.218189
0.222661
0.226977
0.231123
0.235089
0.238865
0.242442
0.245806
0.248949
0.25187
0.254556
0.256996
0.259207
0.261157
0.262854
0.264309
0.26545
0.266456
0.267089
0.267208
0.26713
0.266816
0.265937
0.264109
0.261532
0.258508
0.25518
0.2516
0.247773
0.243674
0.239253
0.234387
0.228959
0.22242
0.214824
0.202623
0.191061
0.146613
1.90363e-16
-2.34938e-17
-2.7509e-17
2.45382e-15
5.71336e-15
-8.14147e-14
-2.4761e-13
1.28972e-12
6.61223e-12
-3.84692e-12
-8.67696e-11
-1.75505e-10
3.02158e-10
2.15028e-09
3.92502e-09
-1.71592e-09
-2.59491e-08
-6.77313e-08
-8.70922e-08
9.29455e-09
3.39226e-07
9.59917e-07
1.75107e-06
2.32189e-06
2.00262e-06
-4.34529e-08
-4.59275e-06
-1.20623e-05
-2.22052e-05
-3.38699e-05
-4.48795e-05
-5.20628e-05
-5.14437e-05
-3.85695e-05
-8.9452e-06
4.14753e-05
0.000115789
0.00021568
0.000341036
0.000489674
0.000657184
0.000836922
0.00102013
0.00119617
0.00135289
0.00147705
0.00155478
0.00157219
0.00151579
0.00137307
0.00113296
0.00078626
0.00032601
-0.000252223
-0.000950128
-0.00176652
-0.00269733
-0.00373561
-0.0048717
-0.00609345
-0.0073864
-0.00873421
-0.0101189
-0.0115216
-0.0129222
-0.0143006
-0.0156368
-0.0169112
-0.0181051
-0.019201
-0.020183
-0.0210369
-0.0217504
-0.0223136
-0.0227188
-0.0229605
-0.0230355
-0.022943
-0.0226841
-0.0222621
-0.0216821
-0.0209507
-0.020076
-0.0190671
-0.017934
-0.0166871
-0.0153373
-0.0138953
-0.0123716
-0.0107759
-0.00911754
-0.00740445
-0.00564361
-0.00384061
-0.00199959
-0.000123201
0.00178752
0.00373318
0.00571634
0.00774284
0.00982736
0.0120169
0.0143198
0.0167454
0.0193036
0.0220052
0.0248614
0.0278842
0.0310856
0.0344786
0.0380761
0.0418914
0.045938
0.0502293
0.0547789
0.0596
0.0647055
0.0701078
0.0758186
0.081849
0.0882091
0.0949076
0.101952
0.109349
0.117103
0.125216
0.133691
0.142527
0.151721
0.161269
0.171163
0.181395
0.191954
0.202827
0.214
0.225454
0.237172
0.249132
0.261313
0.27369
0.286237
0.29893
0.311738
0.324634
0.337589
0.350574
0.363557
0.376506
0.389394
0.402191
0.414865
0.42739
0.439734
0.451873
0.463804
0.47545
0.486805
0.497934
0.508575
0.519056
0.52924
0.538835
0.547988
0.556627
0.564828
0.572573
0.579747
0.586359
0.592409
0.597894
0.602805
0.607117
0.610793
0.613708
0.615799
0.616433
0.616051
0.610283
0.606732
0.569709
-3.35229e-16
-4.64032e-16
1.24872e-15
7.16043e-15
-4.79075e-14
-2.53841e-13
4.96777e-13
5.07759e-12
4.46784e-12
-4.78496e-11
-1.6321e-10
-7.82904e-12
1.22596e-09
3.43195e-09
2.23545e-09
-1.23335e-08
-4.69796e-08
-8.27167e-08
-5.18097e-08
1.57187e-07
6.4065e-07
1.36973e-06
2.06959e-06
2.1536e-06
7.734e-07
-2.98717e-06
-9.79284e-06
-1.96732e-05
-3.16609e-05
-4.35396e-05
-5.17757e-05
-5.16718e-05
-3.77495e-05
-4.33174e-06
5.37338e-05
0.000140282
0.000257052
0.000402997
0.000573759
0.000761341
0.000954032
0.00113657
0.00129056
0.00139507
0.00142746
0.00136431
0.00118238
0.000859656
0.000376307
-0.000284405
-0.00113535
-0.00218492
-0.00343656
-0.00488849
-0.00653373
-0.00836016
-0.0103509
-0.0124847
-0.0147369
-0.0170796
-0.019483
-0.0219164
-0.0243486
-0.026749
-0.0290885
-0.0313406
-0.0334813
-0.0354904
-0.0373512
-0.0390517
-0.040584
-0.0419444
-0.0431335
-0.044156
-0.04502
-0.0457366
-0.0463197
-0.046785
-0.0471499
-0.0474322
-0.0476501
-0.0478212
-0.0479622
-0.0480885
-0.0482134
-0.0483479
-0.0485007
-0.0486776
-0.0488818
-0.0491137
-0.0493707
-0.049648
-0.049938
-0.0502311
-0.0505156
-0.0507784
-0.0510051
-0.0511799
-0.0512871
-0.051313
-0.0512531
-0.0511414
-0.0509684
-0.050725
-0.0504001
-0.0499814
-0.0494553
-0.048806
-0.0480165
-0.0470681
-0.0459402
-0.0446105
-0.0430552
-0.0412485
-0.0391634
-0.036771
-0.0340413
-0.0309435
-0.0274454
-0.0235148
-0.0191192
-0.0142263
-0.00880447
-0.00282323
0.00374656
0.010932
0.0187579
0.0272462
0.0364155
0.0462803
0.0568512
0.0681342
0.0801307
0.0928374
0.106246
0.120345
0.135114
0.15053
0.166566
0.183188
0.20036
0.218041
0.236188
0.254752
0.273684
0.292934
0.31245
0.332176
0.352054
0.372032
0.392062
0.412098
0.432069
0.451903
0.471654
0.491201
0.510454
0.529598
0.548409
0.566851
0.584895
0.602532
0.619819
0.636663
0.653044
0.668939
0.684303
0.699144
0.713465
0.727266
0.740548
0.753301
0.765518
0.777145
0.788221
0.798384
0.808233
0.815211
0.824414
0.820224
-4.07314e-15
9.23009e-16
5.94207e-15
4.68648e-16
-1.48045e-13
-2.27618e-13
2.10535e-12
7.68626e-12
-7.31593e-12
-9.63682e-11
-1.8014e-10
2.82634e-10
2.03e-09
3.88287e-09
-4.66533e-10
-2.13368e-08
-6.02279e-08
-8.58058e-08
-1.58347e-08
2.65812e-07
8.35801e-07
1.61046e-06
2.22375e-06
1.97371e-06
-9.84444e-08
-4.96684e-06
-1.32376e-05
-2.46941e-05
-3.78731e-05
-4.97853e-05
-5.58745e-05
-5.02767e-05
-2.63907e-05
2.22752e-05
0.000101057
0.000213002
0.000357761
0.000530647
0.000721939
0.000916542
0.00109403
0.00122911
0.00129244
0.00125183
0.00107367
0.000724518
0.000172821
-0.000609478
-0.00164541
-0.00295167
-0.00453762
-0.00640456
-0.00854544
-0.0109449
-0.0135796
-0.0164192
-0.0194272
-0.0225622
-0.0257797
-0.0290332
-0.0322763
-0.0354636
-0.0385529
-0.0415058
-0.0442891
-0.0468757
-0.0492448
-0.0513824
-0.0532809
-0.0549394
-0.0563628
-0.0575607
-0.0585478
-0.0593417
-0.0599626
-0.060432
-0.0607717
-0.0610036
-0.0611483
-0.0612247
-0.0612494
-0.061237
-0.0611994
-0.061146
-0.0610839
-0.0610182
-0.0609527
-0.0608896
-0.0608301
-0.0607756
-0.0607271
-0.0606862
-0.060655
-0.0606364
-0.060634
-0.0606521
-0.0606954
-0.0607696
-0.0608811
-0.0610405
-0.0612771
-0.0616033
-0.0620146
-0.0625082
-0.0630791
-0.0637215
-0.0644271
-0.0651856
-0.0659845
-0.0668087
-0.0676395
-0.0684553
-0.0692313
-0.0699378
-0.070542
-0.0710063
-0.0712885
-0.0713423
-0.0711168
-0.0705572
-0.069605
-0.0681979
-0.0662714
-0.0637589
-0.0605928
-0.0567052
-0.0520293
-0.0465005
-0.0400574
-0.0326433
-0.0242075
-0.014707
-0.00410616
0.00762117
0.0204917
0.0345118
0.0496766
0.0659689
0.0833604
0.101812
0.121274
0.141688
0.162983
0.18508
0.207891
0.231329
0.255299
0.279706
0.304448
0.329413
0.354488
0.379631
0.404738
0.429605
0.454308
0.478768
0.502786
0.526347
0.549381
0.571869
0.593769
0.615022
0.635615
0.655502
0.674667
0.6931
0.710786
0.727737
0.743968
0.759494
0.774333
0.788493
0.801989
0.814801
0.826994
0.83832
0.849338
0.858264
0.868955
0.87266
2.41046e-14
1.40609e-16
5.30495e-15
-1.96301e-14
-2.31817e-13
-5.69012e-14
3.49782e-12
8.31123e-12
-1.90401e-11
-1.26018e-10
-1.66244e-10
4.87652e-10
2.43732e-09
3.93075e-09
-1.97387e-09
-2.52111e-08
-6.50665e-08
-8.68304e-08
-5.68937e-09
2.94653e-07
8.8825e-07
1.68516e-06
2.30497e-06
2.01479e-06
-1.98554e-07
-5.38219e-06
-1.42069e-05
-2.64601e-05
-4.05534e-05
-5.31789e-05
-5.92386e-05
-5.21361e-05
-2.44663e-05
3.0926e-05
0.000119609
0.000244087
0.000402349
0.000586623
0.000782489
0.000968487
0.00111629
0.0011915
0.00115495
0.000964578
0.000577637
-4.69133e-05
-0.000945908
-0.00214962
-0.00367969
-0.00554744
-0.00775273
-0.0102834
-0.0131151
-0.0162126
-0.0195302
-0.0230139
-0.0266034
-0.0302346
-0.0338416
-0.0373601
-0.0407287
-0.0438917
-0.0468006
-0.0494153
-0.0517051
-0.0536494
-0.0552374
-0.0564671
-0.0573451
-0.0578854
-0.058108
-0.0580377
-0.0577018
-0.0571295
-0.0563508
-0.055395
-0.0542896
-0.0530606
-0.0517315
-0.050323
-0.0488541
-0.0473414
-0.0457995
-0.0442422
-0.0426825
-0.0411326
-0.0396052
-0.0381133
-0.0366701
-0.0352894
-0.0339857
-0.0327738
-0.0316685
-0.0306846
-0.0298362
-0.0291368
-0.0285989
-0.0282334
-0.0280492
-0.0280508
-0.0282273
-0.0285622
-0.0290627
-0.0297309
-0.0305704
-0.0315846
-0.0327769
-0.0341502
-0.0357062
-0.037445
-0.0393645
-0.0414595
-0.043721
-0.0461355
-0.0486837
-0.0513398
-0.0540705
-0.0568345
-0.0595808
-0.0622491
-0.0647693
-0.0670609
-0.0690336
-0.070588
-0.0716163
-0.0720039
-0.0716303
-0.0703721
-0.0681046
-0.0647043
-0.0600524
-0.054037
-0.0465575
-0.037526
-0.0268698
-0.0145342
-0.000483814
0.0152943
0.0327904
0.0519719
0.0727849
0.0951545
0.118985
0.144159
0.170547
0.197997
0.226352
0.25545
0.285142
0.315252
0.345549
0.375946
0.406308
0.436407
0.466126
0.495332
0.523912
0.551787
0.578853
0.605038
0.630275
0.65451
0.677715
0.699856
0.720921
0.740906
0.759811
0.777657
0.794466
0.810272
0.825101
0.838978
0.851941
0.863982
0.875179
0.885322
0.894939
0.902416
0.911386
0.913879
-8.84962e-14
-8.10703e-15
1.29478e-14
-1.402e-14
-2.46059e-13
5.68194e-14
4.00484e-12
8.23372e-12
-2.25253e-11
-1.30955e-10
-1.60613e-10
4.98819e-10
2.40439e-09
3.9074e-09
-1.45622e-09
-2.31984e-08
-6.19493e-08
-8.80759e-08
-2.45756e-08
2.41316e-07
7.96246e-07
1.58832e-06
2.29691e-06
2.24714e-06
4.4176e-07
-4.23454e-06
-1.26276e-05
-2.47906e-05
-3.94298e-05
-5.34612e-05
-6.18299e-05
-5.77201e-05
-3.32267e-05
1.95082e-05
0.000106777
0.000231552
0.000391709
0.000578442
0.000775105
0.000956676
0.00108995
0.00113455
0.0010447
0.000771716
0.000266929
-0.000515019
-0.00161289
-0.00305576
-0.00486039
-0.00702924
-0.00954929
-0.0123918
-0.0155128
-0.0188549
-0.0223493
-0.0259188
-0.0294813
-0.0329531
-0.0362526
-0.0393038
-0.0420391
-0.044402
-0.0463481
-0.0478472
-0.0488827
-0.0494514
-0.0495633
-0.0492392
-0.048509
-0.04741
-0.0459847
-0.0442784
-0.0423376
-0.0402084
-0.037935
-0.0355589
-0.0331181
-0.0306468
-0.0281757
-0.0257314
-0.0233375
-0.0210142
-0.018779
-0.0166469
-0.0146307
-0.0127412
-0.010987
-0.00937492
-0.00790984
-0.00659461
-0.00543036
-0.00441642
-0.00355063
-0.00282965
-0.00224932
-0.00180517
-0.00149287
-0.00130836
-0.00124695
-0.001297
-0.00143361
-0.00166537
-0.00199745
-0.00243863
-0.00299967
-0.0036937
-0.00453612
-0.00554442
-0.00673799
-0.00813766
-0.00976519
-0.0116424
-0.0137902
-0.0162274
-0.0189688
-0.0220241
-0.0253954
-0.0290748
-0.0330429
-0.0372658
-0.0416937
-0.0462582
-0.0508714
-0.0554249
-0.0597903
-0.0638183
-0.067342
-0.0701788
-0.0721328
-0.0729987
-0.072568
-0.0706339
-0.0669976
-0.0614739
-0.0538986
-0.0441335
-0.0320716
-0.01764
-0.000804336
0.0184287
0.040012
0.0638588
0.0898445
0.117808
0.147567
0.178899
0.21156
0.245294
0.279868
0.315026
0.350474
0.385976
0.421292
0.456195
0.490496
0.524015
0.556584
0.588072
0.618362
0.647365
0.675018
0.701266
0.726089
0.74947
0.771417
0.791948
0.811092
0.828891
0.845394
0.860657
0.874735
0.887682
0.899556
0.910382
0.920265
0.929047
0.937264
0.943493
0.951115
0.953309
3.29451e-13
6.14739e-14
8.13577e-15
-5.3612e-14
-2.84073e-13
-6.26369e-14
3.47727e-12
7.98179e-12
-1.7001e-11
-1.13907e-10
-1.66506e-10
3.40588e-10
1.99244e-09
3.73267e-09
4.23384e-10
-1.66907e-08
-5.14328e-08
-8.47781e-08
-5.63262e-08
1.35306e-07
5.91237e-07
1.32091e-06
2.11767e-06
2.44905e-06
1.42968e-06
-2.05673e-06
-9.04938e-06
-2.00303e-05
-3.43477e-05
-4.96719e-05
-6.16464e-05
-6.3892e-05
-4.84886e-05
-6.98444e-06
6.8101e-05
0.000181412
0.000332739
0.000515112
0.000713289
0.000902903
0.00105046
0.00111433
0.00104669
0.00079638
0.000312474
-0.000451818
-0.0015351
-0.00296402
-0.00475016
-0.00688771
-0.00935236
-0.0121013
-0.0150745
-0.0181973
-0.0213835
-0.02454
-0.0275711
-0.0303833
-0.0328899
-0.0350153
-0.0366979
-0.0378928
-0.0385729
-0.03873
-0.0383735
-0.0375288
-0.0362354
-0.0345442
-0.0325142
-0.0302098
-0.0276973
-0.0250425
-0.0223082
-0.019553
-0.0168291
-0.014182
-0.0116499
-0.00926356
-0.00704676
-0.00501652
-0.00318367
-0.00155338
-0.000125851
0.0011031
0.00214154
0.00300078
0.00369487
0.00423995
0.00465373
0.00495484
0.00516217
0.00529435
0.00536905
0.00540249
0.00540899
0.00540055
0.00538668
0.00537442
0.00536937
0.00538011
0.00539493
0.0054133
0.00542985
0.00543797
0.00542847
0.00538925
0.00530489
0.00515607
0.00491901
0.00456513
0.0040608
0.00336728
0.0024411
0.00123482
-0.000301617
-0.00221897
-0.00456607
-0.00738664
-0.0107153
-0.0145734
-0.0189635
-0.0238655
-0.029231
-0.0349793
-0.0409945
-0.0471227
-0.0531724
-0.0589159
-0.0640931
-0.0684166
-0.0715776
-0.0732566
-0.0731335
-0.0708983
-0.0662622
-0.0589683
-0.0488116
-0.0356364
-0.0193443
9.71314e-05
0.0226545
0.0482262
0.07665
0.107701
0.141123
0.1766
0.213781
0.252313
0.291815
0.331913
0.372243
0.41246
0.452244
0.491292
0.529345
0.566175
0.601589
0.635437
0.667601
0.697997
0.726572
0.7533
0.778186
0.80125
0.822538
0.842107
0.860022
0.876368
0.891229
0.904691
0.916847
0.927784
0.937586
0.946316
0.954103
0.960838
0.967064
0.971517
0.977322
0.978657
-1.28588e-12
-3.12334e-13
-5.05695e-14
8.31394e-14
-2.89456e-14
2.58593e-14
2.59776e-12
7.40577e-12
-6.97702e-12
-8.15676e-11
-1.61418e-10
1.2125e-10
1.34666e-09
3.18062e-09
2.28183e-09
-8.53373e-09
-3.56897e-08
-7.19296e-08
-7.86215e-08
2.37573e-08
3.3771e-07
9.27821e-07
1.71793e-06
2.37342e-06
2.22105e-06
2.72125e-07
-4.59415e-06
-1.32636e-05
-2.58657e-05
-4.11881e-05
-5.6168e-05
-6.56299e-05
-6.24305e-05
-3.81259e-05
1.58035e-05
0.000106236
0.000236369
0.000403605
0.000597689
0.000799395
0.00098007
0.00110221
0.00112119
0.000988041
0.000653142
7.05316e-05
-0.000797613
-0.00197669
-0.00347606
-0.00528641
-0.00737852
-0.00970342
-0.0121941
-0.0147688
-0.017335
-0.0197951
-0.0220515
-0.0240129
-0.0255988
-0.0267448
-0.0274053
-0.027556
-0.0271945
-0.0263397
-0.0250297
-0.0233193
-0.0212759
-0.0189757
-0.0164993
-0.0139276
-0.0113382
-0.00880228
-0.00638205
-0.0041293
-0.00208428
-0.000275604
0.00127945
0.00257416
0.00361115
0.00440106
0.00496103
0.00531323
0.00548332
0.00549907
0.00538909
0.00518172
0.00490397
0.00458083
0.0042346
0.00388455
0.00354676
0.00323408
0.00295637
0.00272086
0.00253259
0.00239485
0.00230961
0.00227759
0.00229694
0.00235141
0.00244044
0.00256585
0.00272909
0.00293152
0.00317381
0.00345535
0.00377338
0.00412192
0.00449056
0.004863
0.00521543
0.00551515
0.00571916
0.00577313
0.00561126
0.00515689
0.00432438
0.00302247
0.00115909
-0.00135264
-0.00458653
-0.00859437
-0.0133966
-0.0189728
-0.0252532
-0.032111
-0.0393576
-0.0467398
-0.053944
-0.0606054
-0.0663123
-0.0706217
-0.0730765
-0.0732238
-0.0706379
-0.0649183
-0.0557468
-0.0428784
-0.0261521
-0.00550433
0.0190295
0.0473119
0.0791152
0.114131
0.151973
0.192202
0.234344
0.277899
0.322361
0.367233
0.412038
0.456332
0.499717
0.54184
0.5824
0.621153
0.657908
0.692526
0.724912
0.755021
0.782845
0.808409
0.831769
0.853001
0.872202
0.889486
0.904966
0.918767
0.931017
0.941841
0.951362
0.959691
0.966946
0.973211
0.978635
0.983144
0.987261
0.989857
0.993813
0.994042
5.05442e-12
1.46432e-12
4.19291e-13
-2.22065e-13
-6.56337e-13
-8.96533e-13
5.18221e-13
4.82956e-12
4.50836e-13
-4.61692e-11
-1.31223e-10
-4.75547e-11
6.81662e-10
2.24546e-09
3.04728e-09
-1.78204e-09
-1.90904e-08
-5.03682e-08
-7.8015e-08
-5.13786e-08
1.14037e-07
5.0798e-07
1.15756e-06
1.92662e-06
2.41188e-06
1.88616e-06
-6.51683e-07
-6.27081e-06
-1.57297e-05
-2.89577e-05
-4.44879e-05
-5.89795e-05
-6.69975e-05
-6.12053e-05
-3.30815e-05
2.58121e-05
0.000122086
0.000258492
0.000431868
0.000631412
0.000837601
0.00102205
0.00114851
0.00117502
0.00105719
0.000752236
0.000223514
-0.000554992
-0.0015947
-0.00288945
-0.00441383
-0.00612321
-0.00795535
-0.00983371
-0.0116721
-0.0133801
-0.0148695
-0.0160601
-0.0168854
-0.0172971
-0.0172681
-0.0167946
-0.0158953
-0.0146106
-0.0129985
-0.0111315
-0.00909102
-0.00696232
-0.00482971
-0.00277165
-0.000857003
0.000857885
0.0023311
0.0035359
0.00446057
0.00510724
0.00549023
0.0056337
0.00556919
0.00533299
0.00496355
0.00449928
0.00397647
0.00342778
0.00288108
0.00235877
0.0018775
0.00144838
0.00107736
0.000766041
0.000512525
0.00031242
0.000159826
4.82606e-05
-2.85493e-05
-7.60511e-05
-9.86164e-05
-0.000100339
-8.97711e-05
-6.77346e-05
-3.13086e-05
2.29798e-05
0.000100085
0.000206361
0.000349615
0.000538924
0.000784177
0.00109523
0.00148055
0.00194525
0.00248861
0.0031009
0.00375998
0.00442779
0.00504712
0.00553936
0.00580372
0.0057187
0.00514709
0.003944
0.00196545
-0.000917382
-0.00480294
-0.00974298
-0.0157267
-0.0226669
-0.0303895
-0.0386257
-0.0470031
-0.0550749
-0.062318
-0.0681548
-0.0719807
-0.0731871
-0.0712119
-0.0655235
-0.0557007
-0.0414311
-0.0225253
0.00106898
0.0292624
0.0618313
0.0984305
0.138608
0.181825
0.22748
0.274934
0.323536
0.372643
0.421644
0.46997
0.517115
0.56264
0.60618
0.647441
0.68621
0.722341
0.755749
0.786408
0.814347
0.839633
0.862366
0.882677
0.900706
0.916615
0.930571
0.942737
0.953282
0.962362
0.970136
0.976747
0.982324
0.986999
0.990866
0.994074
0.996571
0.998851
0.999882
1.00231
1.0016
-2.01412e-11
-6.55005e-12
-2.27384e-12
3.95482e-13
1.80769e-12
2.32255e-12
3.10418e-12
6.04837e-12
7.31381e-12
-1.4357e-11
-7.96871e-11
-1.10106e-10
1.9636e-10
1.21648e-09
2.5837e-09
1.81402e-09
-6.28345e-09
-2.69132e-08
-5.7239e-08
-7.40621e-08
-2.38006e-08
1.73455e-07
5.92927e-07
1.24051e-06
1.96196e-06
2.35246e-06
1.71039e-06
-9.125e-07
-6.52047e-06
-1.58259e-05
-2.87704e-05
-4.39938e-05
-5.83742e-05
-6.67939e-05
-6.22769e-05
-3.66096e-05
1.8524e-05
0.000109959
0.000241189
0.000410497
0.000609392
0.000821686
0.00102348
0.00118425
0.00126903
0.0012416
0.00106838
0.000722598
0.000188266
-0.000536533
-0.00143751
-0.00248352
-0.00362755
-0.00480939
-0.00595969
-0.00700517
-0.00787442
-0.0085037
-0.00884233
-0.00885692
-0.00853429
-0.00788268
-0.00693113
-0.00572727
-0.00433361
-0.00282277
-0.00127217
0.000241549
0.00164765
0.00288575
0.0039092
0.00468721
0.00520566
0.00546658
0.00548655
0.00529418
0.00492694
0.00442772
0.00384132
0.00321129
0.00257711
0.00197214
0.00142221
0.000945061
0.000550344
0.000240409
1.14564e-05
-0.000144968
-0.000240366
-0.000287732
-0.000300191
-0.000289938
-0.000267522
-0.000241481
-0.000218256
-0.000202308
-0.000196318
-0.000201293
-0.000209562
-0.00022201
-0.000237919
-0.000256176
-0.000274462
-0.000288718
-0.000292434
-0.00027595
-0.000225939
-0.000125303
4.62224e-05
0.000310455
0.000687911
0.0011936
0.00183155
0.00258849
0.00342727
0.00428103
0.00504907
0.00559503
0.00574659
0.00531331
0.00409229
0.0018884
-0.00146326
-0.00607268
-0.0119703
-0.019085
-0.027228
-0.0360887
-0.0452098
-0.0540303
-0.0618906
-0.0680623
-0.0717874
-0.0723176
-0.0689563
-0.0611069
-0.0482996
-0.0302216
-0.00673509
0.0221145
0.0561007
0.0948309
0.137769
0.184263
0.233575
0.284916
0.337482
0.390484
0.443177
0.494876
0.544981
0.592984
0.638474
0.68114
0.720766
0.757225
0.790473
0.82053
0.847476
0.871441
0.892588
0.9111
0.927187
0.94106
0.952931
0.963009
0.971494
0.978581
0.984444
0.989247
0.993137
0.996243
0.998691
1.00057
1.00202
1.00297
1.0039
1.00383
1.0052
1.00387
8.11858e-11
2.86099e-11
1.11937e-11
1.99884e-13
-6.31968e-12
-9.67958e-12
-1.10224e-11
-9.9036e-12
-6.78523e-12
-1.15443e-11
-4.60967e-11
-1.04057e-10
-5.16226e-11
4.18521e-10
1.5019e-09
2.44429e-09
4.85459e-10
-9.12262e-09
-3.00693e-08
-5.76387e-08
-6.84737e-08
-1.30533e-08
1.79686e-07
5.75409e-07
1.17963e-06
1.86045e-06
2.26904e-06
1.79312e-06
-4.13168e-07
-5.28286e-06
-1.35524e-05
-2.53538e-05
-3.97395e-05
-5.42393e-05
-6.45775e-05
-6.46856e-05
-4.71167e-05
-3.90731e-06
7.21498e-05
0.000185958
0.000338511
0.000525515
0.000736525
0.000954838
0.00115833
0.00132125
0.00141683
0.00142049
0.00131327
0.00108492
0.00073642
0.000281339
-0.000254147
-0.000832637
-0.0014083
-0.00193079
-0.00234983
-0.00262016
-0.00270602
-0.00258496
-0.00225041
-0.00171273
-0.000998664
-0.000149266
0.000783525
0.00174126
0.00266388
0.00349463
0.00418459
0.0046963
0.00500634
0.00510647
0.00500348
0.00471773
0.00428066
0.00373144
0.00311331
0.00246978
0.00184111
0.00126148
0.000756849
0.000343834
2.9535e-05
-0.00018773
-0.000316948
-0.000372394
-0.000371363
-0.000331929
-0.000270977
-0.000202699
-0.000137694
-8.26916e-05
-4.08525e-05
-1.25233e-05
3.75243e-06
1.03115e-05
1.03841e-05
8.05874e-06
3.43548e-06
-4.68951e-06
-1.77916e-05
-3.76716e-05
-6.59546e-05
-0.000103268
-0.000147955
-0.000194597
-0.000232439
-0.000244119
-0.000205248
-8.54193e-05
0.000148833
0.000528815
0.0010762
0.0017938
0.0026555
0.00359691
0.00450873
0.00523767
0.00557533
0.00528846
0.00412761
0.00185347
-0.00173179
-0.00675118
-0.0132204
-0.0210203
-0.0298776
-0.0393551
-0.0488627
-0.0576735
-0.0649579
-0.0698287
-0.0713936
-0.0688091
-0.0613368
-0.04839
-0.0295718
-0.00470061
0.0261791
0.0627993
0.104685
0.151185
0.201508
0.254762
0.310003
0.366278
0.422661
0.478292
0.532402
0.584328
0.633532
0.679601
0.722242
0.761281
0.796648
0.828367
0.856532
0.881301
0.902881
0.921506
0.93743
0.950916
0.962229
0.971622
0.979338
0.985604
0.990627
0.994597
0.997683
1.00003
1.00176
1.003
1.00385
1.00436
1.00465
1.00466
1.00479
1.00414
1.00492
1.00333
-3.30273e-10
-1.23315e-10
-5.20712e-11
-6.86349e-12
2.12574e-11
3.61826e-11
4.321e-11
4.60465e-11
4.77615e-11
4.73196e-11
3.30619e-11
-1.04321e-11
-5.40058e-11
5.54018e-11
5.85268e-10
1.60259e-09
2.24591e-09
-6.15292e-11
-9.41566e-09
-2.88012e-08
-5.41286e-08
-6.59829e-08
-2.31632e-08
1.34968e-07
4.6929e-07
9.99543e-07
1.64268e-06
2.14391e-06
2.02561e-06
5.88054e-07
-3.00279e-06
-9.51609e-06
-1.93442e-05
-3.21099e-05
-4.626e-05
-5.87448e-05
-6.48915e-05
-5.85733e-05
-3.27326e-05
1.97444e-05
0.000104882
0.00022635
0.0003843
0.00057452
0.000788134
0.00101198
0.00122974
0.00142367
0.00157688
0.00167566
0.0017118
0.00168422
0.00159988
0.00147373
0.00132748
0.00118749
0.00108191
0.00103737
0.00107569
0.00121106
0.00144786
0.0017796
0.0021891
0.00264976
0.00312797
0.00358624
0.00398679
0.00429525
0.00448388
0.00453423
0.0044388
0.00420159
0.00383753
0.0033709
0.00283283
0.00225835
0.00168309
0.00114014
0.000657325
0.000255099
-5.4653e-05
-0.000268906
-0.000392858
-0.00043849
-0.000422597
-0.000364409
-0.000283228
-0.00019632
-0.000117285
-5.50654e-05
-1.36228e-05
7.73807e-06
1.34829e-05
1.04546e-05
5.93447e-06
4.74987e-06
5.70215e-06
6.46783e-06
7.4329e-06
7.50422e-06
4.81817e-06
-3.34206e-06
-2.0103e-05
-4.8168e-05
-8.78561e-05
-0.00013504
-0.000178966
-0.000200416
-0.000171117
-5.52126e-05
0.00018655
0.000589582
0.0011754
0.00193968
0.00283986
0.00378466
0.0046278
0.00516753
0.00515767
0.00432439
0.00239408
-0.000871297
-0.00563472
-0.0119443
-0.0196984
-0.02862
-0.0382445
-0.047925
-0.0568538
-0.0641019
-0.0686729