/*--------------------------------*- C++ -*----------------------------------*\
| =========                 |                                                 |
| \\      /  F ield         | OpenFOAM: The Open Source CFD Toolbox           |
|  \\    /   O peration     | Version:  4.1                                   |
|   \\  /    A nd           | Web:      www.OpenFOAM.org                      |
|    \\/     M anipulation  |                                                 |
\*---------------------------------------------------------------------------*/
FoamFile
{
    version     2.0;
    format      ascii;
    class       volScalarField;
    location    "0.04";
    object      T;
}
// * * * * * * * * * * * * * * * * * * * * * * * * * * * * * * * * * * * * * //

dimensions      [0 0 0 1 0 0 0];

internalField   nonuniform List<scalar> 
12225
(
0.625082
0.501659
0.482429
0.479445
0.478893
0.478746
0.478693
0.478669
0.478655
0.478645
0.478633
0.47861
0.478551
0.478404
0.478036
0.477125
0.474845
0.468992
0.617081
0.498208
0.480748
0.478495
0.478335
0.47841
0.478486
0.478541
0.478577
0.478599
0.478609
0.4786
0.478553
0.478416
0.478066
0.477201
0.475091
0.469969
0.621282
0.500687
0.482151
0.479347
0.478884
0.478769
0.478724
0.4787
0.478684
0.478672
0.478658
0.478634
0.478578
0.478442
0.478111
0.47732
0.475482
0.471416
0.621277
0.500416
0.481761
0.479003
0.478628
0.478587
0.478593
0.478605
0.478615
0.478622
0.478622
0.478608
0.478563
0.478443
0.47815
0.477463
0.475941
0.47284
0.621238
0.500487
0.481847
0.479071
0.47869
0.478643
0.47864
0.478643
0.478645
0.478645
0.478641
0.478625
0.478582
0.478474
0.478218
0.477643
0.476435
0.474146
0.621177
0.50051
0.481888
0.479083
0.478687
0.478637
0.478634
0.478637
0.478641
0.478642
0.478639
0.478625
0.478588
0.478496
0.478283
0.477822
0.476901
0.475256
0.621178
0.500547
0.481941
0.479115
0.478704
0.47865
0.478644
0.478646
0.478648
0.478649
0.478646
0.478634
0.478602
0.478525
0.478354
0.478
0.477323
0.476169
0.621179
0.500558
0.481969
0.479137
0.478717
0.478659
0.478652
0.478652
0.478653
0.478653
0.47865
0.47864
0.478613
0.47855
0.478412
0.478136
0.477626
0.476783
0.621177
0.500563
0.481988
0.479156
0.478731
0.478669
0.47866
0.478659
0.478659
0.478659
0.478656
0.478647
0.478624
0.478572
0.478462
0.478246
0.477858
0.477233
0.621174
0.500565
0.482002
0.479173
0.478745
0.47868
0.478669
0.478667
0.478666
0.478665
0.478662
0.478654
0.478636
0.478595
0.47851
0.478349
0.478068
0.477623
0.621171
0.500564
0.482012
0.479188
0.478759
0.478692
0.47868
0.478676
0.478675
0.478673
0.478669
0.478663
0.478649
0.478618
0.478556
0.478442
0.478247
0.477946
0.621167
0.500561
0.482017
0.479198
0.478771
0.478704
0.47869
0.478686
0.478683
0.478681
0.478678
0.478672
0.478662
0.47864
0.478597
0.478521
0.478394
0.478201
0.621164
0.500557
0.482019
0.479205
0.47878
0.478714
0.4787
0.478696
0.478692
0.47869
0.478687
0.478682
0.478674
0.47866
0.478632
0.478584
0.478506
0.47839
0.621161
0.500553
0.482019
0.479209
0.478786
0.47872
0.478708
0.478704
0.478701
0.478698
0.478695
0.478692
0.478686
0.478677
0.47866
0.478632
0.478588
0.478523
0.621158
0.500549
0.482017
0.47921
0.478789
0.478725
0.478713
0.47871
0.478708
0.478705
0.478703
0.4787
0.478697
0.47869
0.47868
0.478666
0.478642
0.478609
0.621156
0.500546
0.482015
0.479209
0.47879
0.478728
0.478717
0.478714
0.478712
0.47871
0.478709
0.478708
0.478705
0.478701
0.478695
0.478687
0.478676
0.478661
0.621154
0.500544
0.482013
0.479208
0.47879
0.478728
0.478718
0.478716
0.478714
0.478714
0.478712
0.478711
0.478709
0.478708
0.478705
0.4787
0.478694
0.478688
0.621154
0.500543
0.482012
0.479208
0.47879
0.478728
0.478718
0.478715
0.478714
0.478714
0.478713
0.478712
0.478711
0.478709
0.478707
0.478704
0.478702
0.4787
0.621154
0.500543
0.482012
0.479207
0.478789
0.478728
0.478718
0.478714
0.478712
0.478712
0.47871
0.478709
0.478708
0.478707
0.478706
0.478704
0.478702
0.478701
0.621154
0.500544
0.482012
0.479207
0.478788
0.478725
0.478715
0.478711
0.478709
0.478707
0.478706
0.478705
0.478704
0.478703
0.478702
0.478701
0.4787
0.4787
0.621154
0.500545
0.482014
0.479206
0.478784
0.47872
0.478709
0.478705
0.478703
0.478701
0.478699
0.478698
0.478697
0.478696
0.478696
0.478695
0.478694
0.478694
0.621154
0.500547
0.482015
0.479204
0.47878
0.478714
0.478702
0.478698
0.478696
0.478694
0.478693
0.478692
0.478692
0.478691
0.478691
0.47869
0.478689
0.47869
0.621152
0.500551
0.482014
0.479195
0.478767
0.478701
0.478689
0.478685
0.478684
0.478683
0.478683
0.478682
0.478682
0.478683
0.478682
0.478682
0.478682
0.478683
0.621147
0.500559
0.482014
0.479187
0.478759
0.478694
0.478684
0.478681
0.478681
0.47868
0.47868
0.47868
0.478681
0.478681
0.478681
0.478681
0.478681
0.478682
0.621134
0.500551
0.481983
0.479149
0.478725
0.478665
0.478657
0.478657
0.478658
0.47866
0.478662
0.478664
0.478665
0.478667
0.478669
0.47867
0.478671
0.478672
0.621195
0.500594
0.48198
0.479154
0.478749
0.478696
0.478689
0.478687
0.478686
0.478685
0.478684
0.478682
0.478681
0.47868
0.47868
0.47868
0.478679
0.47868
0.621276
0.500532
0.481808
0.478971
0.478582
0.478548
0.478561
0.47858
0.478597
0.478611
0.478622
0.478631
0.478639
0.478645
0.478651
0.478655
0.478659
0.478661
0.621626
0.501078
0.482445
0.479563
0.479064
0.478923
0.47885
0.478804
0.478771
0.478747
0.47873
0.478716
0.478707
0.4787
0.478695
0.478691
0.47869
0.478684
0.617042
0.497852
0.480426
0.478232
0.478138
0.478261
0.478372
0.478454
0.478512
0.478553
0.478582
0.478604
0.47862
0.478632
0.478642
0.47865
0.478659
0.478657
0.625111
0.502056
0.482622
0.479575
0.479005
0.478839
0.47877
0.478733
0.478711
0.478697
0.478687
0.47868
0.478676
0.478673
0.478671
0.478671
0.478674
0.478662
0.197694
0.197667
0.197603
0.197511
0.197393
0.197247
0.197073
0.196873
0.196644
0.196389
0.196109
0.195804
0.195474
0.195122
0.194746
0.194349
0.193932
0.193495
0.19304
0.192568
0.192081
0.191579
0.191065
0.19054
0.190004
0.189461
0.18891
0.188355
0.187795
0.187234
0.186673
0.186112
0.185554
0.185
0.184452
0.183911
0.183379
0.182857
0.182347
0.18185
0.181367
0.180899
0.180448
0.180015
0.179601
0.179206
0.178833
0.178481
0.178152
0.177846
0.177564
0.177306
0.177073
0.176865
0.176682
0.176525
0.176394
0.176289
0.176209
0.176154
0.176125
0.176121
0.176142
0.176187
0.176256
0.176348
0.176462
0.176599
0.176757
0.176936
0.177134
0.177352
0.177588
0.177842
0.178112
0.178398
0.178699
0.179013
0.179341
0.179681
0.180032
0.180392
0.180762
0.18114
0.181524
0.181915
0.18231
0.182709
0.183111
0.183514
0.183917
0.18432
0.184721
0.18512
0.185514
0.185904
0.186287
0.186664
0.187033
0.187394
0.187745
0.188086
0.188416
0.188734
0.18904
0.189333
0.189613
0.189878
0.190128
0.190364
0.190583
0.190786
0.190972
0.191141
0.191291
0.191423
0.191535
0.191628
0.1917
0.191751
0.191781
0.191788
0.191772
0.191733
0.191669
0.191581
0.191468
0.191328
0.191161
0.190967
0.190745
0.190494
0.190213
0.189902
0.18956
0.189186
0.18878
0.18834
0.187867
0.187359
0.186815
0.186235
0.185618
0.184963
0.18427
0.183538
0.182765
0.181952
0.181098
0.180201
0.179262
0.178279
0.177253
0.176181
0.175064
0.173902
0.172692
0.171436
0.170132
0.168781
0.16738
0.16593
0.164433
0.16288
0.161277
0.159624
0.157915
0.156156
0.154346
0.152487
0.150577
0.148616
0.146605
0.144544
0.142435
0.140284
0.138104
0.1359
0.133776
0.131512
0.198465
0.198433
0.198375
0.198289
0.198173
0.19803
0.197859
0.197659
0.197431
0.197176
0.196893
0.196586
0.196253
0.195897
0.195518
0.195118
0.194697
0.194257
0.1938
0.193325
0.192835
0.192332
0.191815
0.191288
0.190751
0.190206
0.189654
0.189098
0.188537
0.187975
0.187412
0.186851
0.186292
0.185737
0.185188
0.184647
0.184114
0.183591
0.18308
0.182581
0.182097
0.181628
0.181176
0.180742
0.180326
0.179931
0.179556
0.179203
0.178872
0.178565
0.178281
0.178021
0.177786
0.177576
0.177392
0.177233
0.177099
0.176992
0.17691
0.176853
0.176822
0.176816
0.176835
0.176877
0.176944
0.177034
0.177146
0.177281
0.177437
0.177614
0.17781
0.178026
0.178261
0.178512
0.178781
0.179066
0.179365
0.179678
0.180005
0.180344
0.180694
0.181054
0.181423
0.1818
0.182185
0.182575
0.182971
0.18337
0.183772
0.184176
0.184581
0.184985
0.185387
0.185787
0.186183
0.186575
0.18696
0.187339
0.187711
0.188073
0.188427
0.18877
0.189103
0.189424
0.189733
0.190029
0.190311
0.190579
0.190833
0.191071
0.191294
0.1915
0.191689
0.19186
0.192014
0.192148
0.192264
0.192359
0.192435
0.192489
0.192521
0.192531
0.192518
0.192482
0.192421
0.192335
0.192224
0.192087
0.191923
0.191731
0.191511
0.191262
0.190983
0.190674
0.190334
0.189962
0.189557
0.189119
0.188647
0.18814
0.187597
0.187018
0.186402
0.185748
0.185055
0.184323
0.183551
0.182738
0.181884
0.180988
0.180048
0.179065
0.178038
0.176966
0.175848
0.174685
0.173474
0.172217
0.170911
0.169558
0.168155
0.166704
0.165204
0.163651
0.16205
0.160401
0.158699
0.156945
0.155142
0.153287
0.151381
0.149424
0.147416
0.145357
0.143252
0.141102
0.138923
0.13672
0.134575
0.132368
0.20001
0.199962
0.199895
0.199802
0.19968
0.199529
0.19935
0.199141
0.198905
0.198642
0.198352
0.198038
0.197699
0.197337
0.196953
0.196548
0.196123
0.195679
0.195218
0.19474
0.194247
0.193741
0.193223
0.192694
0.192155
0.191609
0.191056
0.190498
0.189937
0.189374
0.188811
0.188249
0.187689
0.187134
0.186584
0.186041
0.185507
0.184983
0.184471
0.183971
0.183486
0.183015
0.182561
0.182125
0.181707
0.18131
0.180932
0.180577
0.180243
0.179933
0.179646
0.179383
0.179145
0.178932
0.178744
0.178581
0.178444
0.178333
0.178248
0.178187
0.178153
0.178143
0.178158
0.178197
0.17826
0.178346
0.178455
0.178587
0.178739
0.178913
0.179107
0.17932
0.179552
0.179802
0.180068
0.180351
0.180649
0.180961
0.181287
0.181625
0.181975
0.182336
0.182706
0.183084
0.18347
0.183863
0.184261
0.184664
0.185069
0.185477
0.185887
0.186296
0.186704
0.18711
0.187512
0.18791
0.188303
0.18869
0.189069
0.18944
0.189802
0.190154
0.190496
0.190826
0.191144
0.191449
0.191741
0.192019
0.192283
0.192531
0.192764
0.19298
0.193179
0.193361
0.193524
0.193669
0.193795
0.193901
0.193986
0.19405
0.194092
0.194112
0.194109
0.194082
0.194031
0.193955
0.193853
0.193725
0.19357
0.193387
0.193175
0.192935
0.192664
0.192363
0.19203
0.191665
0.191267
0.190836
0.19037
0.189869
0.189332
0.188758
0.188147
0.187498
0.186809
0.186082
0.185313
0.184504
0.183653
0.182759
0.181822
0.18084
0.179815
0.178744
0.177627
0.176464
0.175254
0.173996
0.17269
0.171336
0.169933
0.16848
0.166979
0.165425
0.163823
0.162172
0.160469
0.158715
0.15691
0.155054
0.153146
0.151187
0.149176
0.147114
0.145004
0.142848
0.140659
0.138444
0.136268
0.134062
0.202323
0.20226
0.202183
0.202081
0.201949
0.201788
0.201597
0.201378
0.201131
0.200858
0.20056
0.200237
0.19989
0.19952
0.199129
0.198717
0.198285
0.197836
0.19737
0.196887
0.196391
0.195881
0.195359
0.194827
0.194285
0.193736
0.193181
0.192621
0.192058
0.191493
0.190928
0.190363
0.189802
0.189245
0.188693
0.188148
0.187612
0.187086
0.186571
0.186068
0.18558
0.185106
0.184649
0.18421
0.183788
0.183387
0.183005
0.182645
0.182307
0.181992
0.1817
0.181433
0.181189
0.180971
0.180778
0.18061
0.180467
0.18035
0.180259
0.180193
0.180153
0.180137
0.180146
0.18018
0.180237
0.180318
0.180422
0.180548
0.180696
0.180865
0.181054
0.181263
0.181491
0.181737
0.182
0.18228
0.182576
0.182886
0.18321
0.183548
0.183897
0.184258
0.184629
0.185009
0.185397
0.185793
0.186194
0.186601
0.187012
0.187426
0.187842
0.188258
0.188674
0.189089
0.189501
0.189909
0.190312
0.19071
0.191101
0.191484
0.191859
0.192224
0.192578
0.192922
0.193254
0.193573
0.19388
0.194172
0.19445
0.194714
0.194961
0.195193
0.195407
0.195604
0.195783
0.195943
0.196084
0.196206
0.196306
0.196386
0.196443
0.196478
0.19649
0.196478
0.196442
0.19638
0.196292
0.196178
0.196036
0.195867
0.195668
0.19544
0.195182
0.194893
0.194571
0.194218
0.193831
0.19341
0.192954
0.192462
0.191934
0.191369
0.190766
0.190125
0.189444
0.188722
0.18796
0.187156
0.18631
0.185421
0.184487
0.18351
0.182487
0.181419
0.180304
0.179142
0.177933
0.176676
0.17537
0.174016
0.172612
0.171158
0.169654
0.168099
0.166494
0.164839
0.163133
0.161375
0.159566
0.157705
0.155793
0.153828
0.151811
0.149742
0.147624
0.145457
0.143254
0.141018
0.138807
0.136574
0.2054
0.205327
0.20524
0.205129
0.204988
0.204816
0.204613
0.204383
0.204125
0.20384
0.203531
0.203197
0.20284
0.20246
0.20206
0.20164
0.201201
0.200744
0.20027
0.199782
0.199279
0.198764
0.198237
0.1977
0.197155
0.196602
0.196043
0.19548
0.194913
0.194345
0.193777
0.19321
0.192645
0.192085
0.19153
0.190982
0.190443
0.189913
0.189394
0.188888
0.188395
0.187917
0.187456
0.187011
0.186585
0.186178
0.185791
0.185425
0.185081
0.184759
0.184461
0.184187
0.183936
0.183711
0.18351
0.183335
0.183185
0.18306
0.182961
0.182888
0.18284
0.182816
0.182818
0.182844
0.182894
0.182967
0.183064
0.183183
0.183324
0.183486
0.183669
0.183873
0.184095
0.184336
0.184594
0.18487
0.185162
0.185469
0.185791
0.186127
0.186475
0.186835
0.187206
0.187588
0.187978
0.188377
0.188782
0.189194
0.189611
0.190031
0.190455
0.19088
0.191305
0.19173
0.192153
0.192573
0.19299
0.193401
0.193806
0.194204
0.194593
0.194974
0.195345
0.195705
0.196054
0.196391
0.196715
0.197025
0.197322
0.197603
0.19787
0.19812
0.198353
0.198569
0.198767
0.198947
0.199107
0.199247
0.199367
0.199465
0.199542
0.199596
0.199626
0.199633
0.199615
0.199571
0.199501
0.199404
0.19928
0.199127
0.198945
0.198733
0.19849
0.198216
0.19791
0.19757
0.197197
0.196789
0.196346
0.195866
0.19535
0.194796
0.194203
0.193571
0.192899
0.192186
0.191432
0.190635
0.189795
0.188912
0.187984
0.187011
0.185992
0.184927
0.183815
0.182655
0.181447
0.180191
0.178885
0.17753
0.176125
0.174669
0.173163
0.171605
0.169997
0.168338
0.166627
0.164865
0.16305
0.161184
0.159265
0.157293
0.155269
0.153192
0.151062
0.148883
0.146663
0.144404
0.142159
0.139882
0.209265
0.209183
0.209087
0.208967
0.208815
0.208631
0.208417
0.208174
0.207903
0.207606
0.207284
0.206939
0.20657
0.206179
0.205768
0.205338
0.204889
0.204423
0.203941
0.203445
0.202935
0.202412
0.201879
0.201336
0.200785
0.200227
0.199663
0.199095
0.198524
0.197951
0.197378
0.196807
0.196238
0.195673
0.195113
0.194561
0.194017
0.193482
0.192958
0.192446
0.191948
0.191465
0.190997
0.190546
0.190113
0.189699
0.189304
0.188931
0.188579
0.18825
0.187943
0.18766
0.187401
0.187167
0.186957
0.186773
0.186613
0.186479
0.186371
0.186287
0.186229
0.186196
0.186188
0.186204
0.186245
0.186309
0.186396
0.186506
0.186639
0.186792
0.186967
0.187163
0.187377
0.187611
0.187863
0.188133
0.18842
0.188722
0.18904
0.189372
0.189718
0.190077
0.190447
0.190829
0.19122
0.191621
0.19203
0.192446
0.192868
0.193296
0.193727
0.194161
0.194596
0.195032
0.195467
0.1959
0.196331
0.196756
0.197177
0.197591
0.197997
0.198396
0.198784
0.199163
0.199531
0.199887
0.200231
0.200561
0.200878
0.20118
0.201468
0.201739
0.201994
0.202231
0.202451
0.202652
0.202835
0.202997
0.203138
0.203259
0.203357
0.203432
0.203484
0.203512
0.203515
0.203492
0.203443
0.203366
0.203262
0.203129
0.202966
0.202772
0.202548
0.202291
0.202002
0.201679
0.201322
0.200929
0.200501
0.200036
0.199533
0.198991
0.198411
0.19779
0.197129
0.196426
0.195681
0.194892
0.19406
0.193184
0.192262
0.191294
0.190281
0.189219
0.188111
0.186953
0.185747
0.184492
0.183186
0.181831
0.180425
0.178967
0.177459
0.175898
0.174286
0.172623
0.170907
0.169139
0.167319
0.165447
0.163521
0.161542
0.159509
0.157422
0.155281
0.153088
0.15085
0.148567
0.146287
0.143961
0.213938
0.21385
0.213745
0.213615
0.213452
0.213256
0.213029
0.212773
0.21249
0.212179
0.211844
0.211485
0.211103
0.2107
0.210276
0.209834
0.209374
0.208897
0.208405
0.207899
0.20738
0.206849
0.206307
0.205757
0.205198
0.204633
0.204062
0.203487
0.202909
0.202331
0.201752
0.201174
0.200599
0.200028
0.199463
0.198904
0.198354
0.197812
0.197282
0.196763
0.196258
0.195767
0.195291
0.194832
0.194391
0.193968
0.193565
0.193183
0.192822
0.192482
0.192166
0.191872
0.191603
0.191358
0.191137
0.190941
0.19077
0.190625
0.190504
0.190409
0.190339
0.190295
0.190274
0.190279
0.190308
0.19036
0.190436
0.190534
0.190656
0.190799
0.190963
0.191148
0.191353
0.191578
0.191821
0.192082
0.192361
0.192657
0.192969
0.193295
0.193637
0.193992
0.19436
0.19474
0.195131
0.195532
0.195943
0.196362
0.196789
0.197222
0.197659
0.198101
0.198546
0.198993
0.199439
0.199885
0.200329
0.200769
0.201205
0.201636
0.20206
0.202475
0.202883
0.203281
0.203668
0.204044
0.204409
0.20476
0.205098
0.205423
0.205732
0.206026
0.206303
0.206564
0.206807
0.207031
0.207237
0.207423
0.207588
0.207732
0.207853
0.207952
0.208028
0.208079
0.208104
0.208104
0.208077
0.208023
0.20794
0.207828
0.207686
0.207514
0.207309
0.207072
0.206802
0.206497
0.206158
0.205783
0.205371
0.204921
0.204434
0.203907
0.20334
0.202732
0.202083
0.201392
0.200657
0.199878
0.199055
0.198187
0.197273
0.196312
0.195303
0.194247
0.193142
0.191988
0.190784
0.18953
0.188226
0.18687
0.185463
0.184004
0.182494
0.18093
0.179315
0.177647
0.175927
0.174154
0.172328
0.170449
0.168516
0.166529
0.164487
0.16239
0.160238
0.158031
0.155775
0.153468
0.151156
0.14878
0.219453
0.219359
0.219245
0.219103
0.218928
0.21872
0.21848
0.21821
0.217912
0.217587
0.217237
0.216863
0.216467
0.21605
0.215612
0.215156
0.214683
0.214194
0.21369
0.213172
0.212641
0.212099
0.211548
0.210987
0.210419
0.209844
0.209265
0.208681
0.208095
0.207508
0.206922
0.206336
0.205753
0.205175
0.204601
0.204035
0.203476
0.202927
0.202388
0.201861
0.201346
0.200846
0.200361
0.199893
0.199441
0.199008
0.198595
0.198201
0.197829
0.197478
0.197149
0.196844
0.196562
0.196304
0.19607
0.195861
0.195676
0.195517
0.195383
0.195274
0.19519
0.195131
0.195096
0.195086
0.195101
0.195139
0.195201
0.195285
0.195393
0.195522
0.195673
0.195845
0.196038
0.19625
0.196482
0.196732
0.197001
0.197286
0.197589
0.197907
0.198241
0.19859
0.198953
0.199328
0.199716
0.200116
0.200526
0.200946
0.201374
0.20181
0.202253
0.202701
0.203153
0.203608
0.204064
0.204521
0.204977
0.205431
0.205881
0.206327
0.206766
0.207199
0.207624
0.20804
0.208446
0.208842
0.209226
0.209598
0.209958
0.210304
0.210635
0.210951
0.211252
0.211535
0.211802
0.21205
0.212279
0.212489
0.212678
0.212846
0.212992
0.213115
0.213214
0.213289
0.213338
0.213362
0.213358
0.213327
0.213267
0.213178
0.213058
0.212907
0.212724
0.212507
0.212257
0.211973
0.211652
0.211296
0.210901
0.210469
0.209998
0.209487
0.208935
0.208341
0.207705
0.207027
0.206304
0.205536
0.204723
0.203864
0.202958
0.202005
0.201003
0.199953
0.198853
0.197703
0.196502
0.195251
0.193948
0.192593
0.191186
0.189726
0.188214
0.186649
0.185031
0.183359
0.181635
0.179857
0.178025
0.17614
0.1742
0.172206
0.170156
0.168049
0.165886
0.163666
0.161393
0.159064
0.156722
0.154301
0.225846
0.225744
0.22562
0.225466
0.225278
0.225056
0.224801
0.224516
0.224202
0.223862
0.223496
0.223106
0.222693
0.22226
0.221806
0.221335
0.220846
0.220342
0.219823
0.219291
0.218747
0.218193
0.217628
0.217055
0.216475
0.215889
0.215299
0.214704
0.214108
0.213511
0.212914
0.212318
0.211726
0.211137
0.210554
0.209977
0.209409
0.208849
0.2083
0.207762
0.207237
0.206726
0.20623
0.20575
0.205287
0.204842
0.204416
0.204009
0.203624
0.203259
0.202917
0.202597
0.202301
0.202028
0.201779
0.201554
0.201354
0.201179
0.201028
0.200903
0.200802
0.200726
0.200674
0.200648
0.200645
0.200666
0.20071
0.200778
0.200869
0.200981
0.201116
0.201272
0.201448
0.201645
0.201861
0.202097
0.202351
0.202624
0.202913
0.20322
0.203543
0.203881
0.204235
0.204602
0.204983
0.205377
0.205783
0.2062
0.206626
0.207062
0.207506
0.207957
0.208413
0.208873
0.209336
0.209801
0.210266
0.21073
0.211192
0.211649
0.212102
0.212549
0.212989
0.213421
0.213844
0.214257
0.214659
0.21505
0.215429
0.215795
0.216146
0.216484
0.216805
0.217111
0.217399
0.21767
0.217922
0.218155
0.218367
0.218558
0.218728
0.218874
0.218997
0.219096
0.219169
0.219216
0.219236
0.219228
0.219191
0.219124
0.219026
0.218897
0.218736
0.218541
0.218311
0.218047
0.217746
0.217409
0.217033
0.216619
0.216165
0.21567
0.215134
0.214556
0.213935
0.21327
0.21256
0.211804
0.211002
0.210154
0.209257
0.208312
0.207318
0.206275
0.205181
0.204036
0.20284
0.201592
0.200292
0.198939
0.197533
0.196073
0.194561
0.192994
0.191374
0.1897
0.187973
0.186191
0.184355
0.182464
0.180519
0.178518
0.176461
0.174346
0.172173
0.169941
0.167654
0.165306
0.162937
0.160476
0.233155
0.233045
0.232909
0.232741
0.232539
0.232301
0.23203
0.231728
0.231397
0.231039
0.230655
0.230246
0.229815
0.229363
0.228892
0.228402
0.227896
0.227374
0.226838
0.22629
0.225729
0.225159
0.224579
0.223991
0.223396
0.222796
0.222192
0.221584
0.220975
0.220365
0.219755
0.219147
0.218542
0.217942
0.217346
0.216758
0.216177
0.215605
0.215044
0.214494
0.213956
0.213432
0.212923
0.212429
0.211952
0.211493
0.211053
0.210632
0.210231
0.209851
0.209493
0.209156
0.208843
0.208553
0.208287
0.208044
0.207826
0.207632
0.207462
0.207317
0.207197
0.207101
0.20703
0.206983
0.20696
0.20696
0.206985
0.207032
0.207102
0.207194
0.207308
0.207443
0.2076
0.207777
0.207974
0.208191
0.208427
0.208681
0.208954
0.209244
0.209551
0.209874
0.210214
0.210568
0.210938
0.211321
0.211718
0.212126
0.212547
0.212977
0.213417
0.213866
0.214321
0.214782
0.215247
0.215715
0.216185
0.216654
0.217123
0.217588
0.21805
0.218507
0.218958
0.219402
0.219837
0.220264
0.220681
0.221087
0.221482
0.221864
0.222233
0.222589
0.222929
0.223253
0.223561
0.223852
0.224125
0.224378
0.224612
0.224824
0.225015
0.225184
0.225329
0.225449
0.225545
0.225614
0.225656
0.22567
0.225655
0.22561
0.225534
0.225427
0.225286
0.225112
0.224903
0.224659
0.224378
0.22406
0.223703
0.223307
0.222871
0.222393
0.221874
0.221311
0.220705
0.220054
0.219358
0.218615
0.217826
0.216988
0.216103
0.215167
0.214183
0.213147
0.21206
0.210922
0.209732
0.208489
0.207193
0.205843
0.204439
0.202982
0.20147
0.199904
0.198284
0.196609
0.194879
0.193095
0.191256
0.189362
0.187413
0.185407
0.183344
0.181223
0.179043
0.176801
0.174502
0.172139
0.169749
0.167255
0.241425
0.241305
0.241155
0.240972
0.240753
0.240498
0.240208
0.239887
0.239536
0.239157
0.238752
0.238323
0.23787
0.237397
0.236904
0.236393
0.235866
0.235323
0.234767
0.234198
0.233618
0.233028
0.23243
0.231824
0.231212
0.230594
0.229973
0.229349
0.228724
0.228098
0.227473
0.226851
0.226231
0.225616
0.225006
0.224403
0.223808
0.223221
0.222645
0.222081
0.221528
0.220989
0.220465
0.219956
0.219463
0.218988
0.218531
0.218093
0.217675
0.217277
0.2169
0.216546
0.216213
0.215903
0.215617
0.215354
0.215114
0.214899
0.214707
0.21454
0.214397
0.214278
0.214184
0.214113
0.214066
0.214042
0.214042
0.214064
0.214109
0.214176
0.214266
0.214376
0.214508
0.214661
0.214834
0.215026
0.215239
0.21547
0.215719
0.215987
0.216273
0.216576
0.216896
0.217232
0.217583
0.21795
0.218331
0.218726
0.219133
0.219553
0.219983
0.220423
0.220871
0.221326
0.221787
0.222252
0.22272
0.223189
0.223659
0.224126
0.224591
0.225052
0.225508
0.225958
0.226401
0.226836
0.227263
0.227679
0.228085
0.228479
0.228861
0.22923
0.229584
0.229924
0.230247
0.230554
0.230844
0.231114
0.231366
0.231596
0.231806
0.231993
0.232158
0.232298
0.232413
0.232502
0.232564
0.232598
0.232603
0.232578
0.232523
0.232435
0.232315
0.23216
0.231971
0.231746
0.231484
0.231185
0.230846
0.230468
0.230049
0.229589
0.229086
0.22854
0.227949
0.227313
0.226631
0.225902
0.225126
0.224301
0.223426
0.222502
0.221527
0.220501
0.219423
0.218293
0.21711
0.215873
0.214583
0.213238
0.211839
0.210385
0.208876
0.207313
0.205694
0.20402
0.20229
0.200506
0.198666
0.196771
0.194819
0.192811
0.190745
0.18862
0.186435
0.184188
0.181881
0.179507
0.177102
0.174581
0.250703
0.250572
0.250407
0.250206
0.249967
0.249691
0.24938
0.249037
0.248662
0.248259
0.24783
0.247375
0.246897
0.246398
0.24588
0.245344
0.244791
0.244223
0.243642
0.24305
0.242446
0.241833
0.241212
0.240584
0.239951
0.239313
0.238671
0.238028
0.237383
0.236739
0.236096
0.235455
0.234818
0.234185
0.233558
0.232938
0.232326
0.231723
0.23113
0.230548
0.229979
0.229423
0.228881
0.228354
0.227843
0.22735
0.226874
0.226416
0.225978
0.225561
0.225163
0.224787
0.224433
0.224101
0.223791
0.223504
0.223241
0.223001
0.222784
0.222591
0.222422
0.222276
0.222154
0.222055
0.221979
0.221927
0.221897
0.221891
0.221906
0.221944
0.222003
0.222083
0.222185
0.222307
0.22245
0.222613
0.222795
0.222997
0.223218
0.223457
0.223715
0.22399
0.224283
0.224593
0.22492
0.225263
0.225622
0.225995
0.226382
0.226783
0.227195
0.227619
0.228053
0.228495
0.228944
0.229398
0.229857
0.230318
0.23078
0.231242
0.231703
0.232161
0.232615
0.233064
0.233508
0.233944
0.234373
0.234794
0.235204
0.235605
0.235993
0.23637
0.236733
0.237081
0.237415
0.237733
0.238034
0.238317
0.238582
0.238826
0.23905
0.239252
0.239431
0.239587
0.239718
0.239824
0.239903
0.239954
0.239976
0.239969
0.239931
0.239861
0.239759
0.239622
0.239451
0.239244
0.239
0.238718
0.238397
0.238036
0.237634
0.23719
0.236703
0.236173
0.235598
0.234977
0.23431
0.233595
0.232832
0.23202
0.231158
0.230246
0.229283
0.228268
0.2272
0.226079
0.224905
0.223676
0.222393
0.221056
0.219663
0.218215
0.216711
0.215151
0.213536
0.211866
0.210139
0.208357
0.206519
0.204624
0.202674
0.200666
0.1986
0.196474
0.194288
0.192038
0.189728
0.187348
0.184934
0.182394
0.261045
0.2609
0.260716
0.260494
0.260232
0.259931
0.259594
0.259223
0.258821
0.258388
0.257929
0.257444
0.256935
0.256405
0.255856
0.255289
0.254705
0.254108
0.253497
0.252875
0.252243
0.251603
0.250955
0.250301
0.249642
0.248979
0.248313
0.247646
0.246979
0.246312
0.245648
0.244986
0.244328
0.243675
0.243028
0.242388
0.241756
0.241134
0.240521
0.23992
0.239331
0.238755
0.238193
0.237646
0.237115
0.2366
0.236103
0.235624
0.235164
0.234723
0.234302
0.233901
0.233522
0.233164
0.232828
0.232515
0.232223
0.231955
0.231709
0.231486
0.231286
0.231109
0.230954
0.230823
0.230714
0.230628
0.230564
0.230523
0.230503
0.230505
0.230528
0.230572
0.230637
0.230723
0.230829
0.230955
0.2311
0.231266
0.23145
0.231653
0.231875
0.232116
0.232375
0.232651
0.232945
0.233256
0.233583
0.233927
0.234285
0.234658
0.235045
0.235443
0.235853
0.236273
0.236701
0.237135
0.237576
0.23802
0.238466
0.238913
0.239361
0.239807
0.240251
0.240691
0.241127
0.241557
0.241981
0.242397
0.242805
0.243203
0.243591
0.243968
0.244333
0.244685
0.245022
0.245345
0.245651
0.24594
0.246212
0.246465
0.246697
0.246909
0.247099
0.247265
0.247408
0.247525
0.247617
0.247681
0.247717
0.247724
0.2477
0.247645
0.247557
0.247436
0.24728
0.247088
0.24686
0.246594
0.246288
0.245943
0.245557
0.245129
0.244658
0.244143
0.243583
0.242977
0.242324
0.241624
0.240875
0.240077
0.239229
0.23833
0.237379
0.236375
0.235319
0.23421
0.233046
0.231828
0.230554
0.229226
0.227841
0.226401
0.224905
0.223352
0.221744
0.220079
0.218358
0.216581
0.214747
0.212857
0.21091
0.208906
0.206843
0.20472
0.202537
0.20029
0.197981
0.1956
0.193183
0.190633
0.272506
0.272345
0.272139
0.271891
0.271601
0.27127
0.270901
0.270496
0.270058
0.269589
0.269093
0.26857
0.268023
0.267455
0.266868
0.266263
0.265642
0.265008
0.264362
0.263704
0.263038
0.262364
0.261684
0.260999
0.260309
0.259617
0.258923
0.258228
0.257534
0.256842
0.256152
0.255465
0.254783
0.254106
0.253436
0.252774
0.252119
0.251474
0.25084
0.250216
0.249605
0.249007
0.248422
0.247852
0.247297
0.246759
0.246237
0.245733
0.245247
0.24478
0.244332
0.243904
0.243496
0.243109
0.242743
0.242398
0.242075
0.241773
0.241493
0.241236
0.241
0.240786
0.240595
0.240425
0.240278
0.240152
0.240047
0.239964
0.239903
0.239862
0.239843
0.239844
0.239865
0.239907
0.239969
0.24005
0.240151
0.240272
0.240412
0.240571
0.240749
0.240946
0.241161
0.241395
0.241647
0.241917
0.242204
0.242508
0.242828
0.243164
0.243514
0.243878
0.244254
0.24464
0.245037
0.245442
0.245853
0.24627
0.24669
0.247113
0.247537
0.247962
0.248385
0.248807
0.249226
0.24964
0.250049
0.250453
0.250849
0.251237
0.251616
0.251986
0.252344
0.25269
0.253024
0.253343
0.253648
0.253937
0.254209
0.254463
0.254698
0.254913
0.255107
0.255278
0.255427
0.255551
0.25565
0.255723
0.255768
0.255784
0.255771
0.255726
0.25565
0.25554
0.255397
0.255218
0.255002
0.254749
0.254458
0.254126
0.253754
0.25334
0.252884
0.252383
0.251837
0.251246
0.250608
0.249922
0.249187
0.248403
0.247569
0.246683
0.245746
0.244756
0.243713
0.242616
0.241464
0.240258
0.238996
0.237679
0.236305
0.234876
0.233389
0.231847
0.230247
0.228591
0.226879
0.22511
0.223284
0.221402
0.219462
0.217465
0.215409
0.213294
0.211117
0.208877
0.206574
0.204199
0.201785
0.199233
0.285152
0.284971
0.284738
0.284459
0.284133
0.283764
0.283354
0.282906
0.282423
0.281908
0.281364
0.280793
0.280199
0.279583
0.278948
0.278297
0.277631
0.276952
0.276262
0.275562
0.274855
0.274141
0.273423
0.2727
0.271975
0.271248
0.27052
0.269793
0.269068
0.268345
0.267626
0.266911
0.266201
0.265497
0.2648
0.264111
0.263431
0.262761
0.262101
0.261452
0.260815
0.260191
0.25958
0.258984
0.258403
0.257837
0.257288
0.256755
0.25624
0.255743
0.255264
0.254804
0.254363
0.253942
0.253541
0.25316
0.2528
0.25246
0.252141
0.251843
0.251566
0.251309
0.251074
0.25086
0.250667
0.250494
0.250343
0.250211
0.250101
0.25001
0.24994
0.24989
0.24986
0.24985
0.249859
0.249887
0.249936
0.250003
0.25009
0.250195
0.25032
0.250464
0.250627
0.250808
0.251008
0.251227
0.251464
0.251718
0.251989
0.252277
0.25258
0.252898
0.253229
0.253572
0.253927
0.25429
0.254661
0.255039
0.255422
0.25581
0.2562
0.256592
0.256985
0.257377
0.257768
0.258157
0.258542
0.258923
0.259298
0.259666
0.260027
0.260379
0.260722
0.261055
0.261376
0.261684
0.261979
0.262259
0.262524
0.262772
0.263002
0.263213
0.263405
0.263575
0.263723
0.263848
0.263949
0.264024
0.264073
0.264094
0.264086
0.264047
0.263978
0.263876
0.263741
0.263571
0.263365
0.263123
0.262842
0.262522
0.262162
0.26176
0.261316
0.260829
0.260297
0.259719
0.259094
0.258422
0.257702
0.256932
0.256112
0.255241
0.254318
0.253342
0.252313
0.25123
0.250093
0.2489
0.247652
0.246348
0.244988
0.243571
0.242098
0.240567
0.23898
0.237336
0.235635
0.233878
0.232063
0.230192
0.228264
0.226278
0.224233
0.222129
0.219964
0.217735
0.215444
0.21308
0.210677
0.20813
0.299055
0.298849
0.298583
0.298264
0.297893
0.297474
0.29701
0.296505
0.295963
0.295388
0.294783
0.294151
0.293496
0.29282
0.292126
0.291417
0.290694
0.289961
0.289218
0.288467
0.287711
0.28695
0.286186
0.285419
0.284652
0.283885
0.283119
0.282354
0.281593
0.280835
0.280082
0.279334
0.278592
0.277857
0.27713
0.276411
0.275702
0.275002
0.274312
0.273634