/*--------------------------------*- C++ -*----------------------------------*\
| =========                 |                                                 |
| \\      /  F ield         | OpenFOAM: The Open Source CFD Toolbox           |
|  \\    /   O peration     | Version:  4.1                                   |
|   \\  /    A nd           | Web:      www.OpenFOAM.org                      |
|    \\/     M anipulation  |                                                 |
\*---------------------------------------------------------------------------*/
FoamFile
{
    version     2.0;
    format      ascii;
    class       volScalarField;
    location    "0.07";
    object      T;
}
// * * * * * * * * * * * * * * * * * * * * * * * * * * * * * * * * * * * * * //

dimensions      [0 0 0 1 0 0 0];

internalField   nonuniform List<scalar> 
12225
(
1.11552
1.23317
1.29917
1.34126
1.36974
1.38851
1.40119
1.41004
1.41642
1.42116
1.42479
1.42763
1.4299
1.43177
1.4333
1.43469
1.43581
1.43518
0.860947
0.707839
0.632408
0.594821
0.576427
0.569644
0.569414
0.572758
0.577971
0.584077
0.590513
0.596954
0.603214
0.609181
0.61481
0.619994
0.624958
0.628865
1.03458
1.08006
1.10414
1.11423
1.11556
1.11189
1.10559
1.09802
1.08996
1.08185
1.07398
1.06647
1.05942
1.05284
1.04677
1.04114
1.0362
1.0315
1.00165
0.998855
0.992981
0.988432
0.986044
0.98539
0.98593
0.9872
0.988859
0.990683
0.992533
0.994323
0.995998
0.997539
0.998939
1.00018
1.0013
1.00234
1.00023
1.00039
1.00026
1.00043
1.00067
1.0008
1.00084
1.0008
1.00072
1.00062
1.00051
1.00042
1.00033
1.00027
1.00023
1.00019
1.00021
1.00021
0.999584
0.999244
0.998899
0.998714
0.99862
0.998535
0.998453
0.99839
0.998342
0.998302
0.998271
0.998244
0.99822
0.998204
0.998189
0.998174
0.998175
0.998153
0.999929
1.00011
1.00016
1.00019
1.00023
1.00025
1.00026
1.00026
1.00026
1.00026
1.00026
1.00025
1.00024
1.00023
1.00022
1.00021
1.00021
1.00019
0.999971
1.00007
1.00006
1.00002
1.00001
1.00001
1.00001
1
1
1
1
1.00001
1.00002
1.00002
1.00002
1.00003
1.00003
1.00003
0.999979
1.00004
1.00003
1.00002
1.00002
1.00002
1.00002
1.00002
1.00002
1.00003
1.00003
1.00003
1.00003
1.00003
1.00003
1.00003
1.00003
1.00003
0.999978
1.00002
1.00001
0.999998
0.999998
1
0.999999
0.999997
0.999996
0.999997
0.999995
0.999996
1
0.999999
0.999995
1
0.999995
0.999997
0.999985
1.00001
1.00001
1
1
0.999997
0.999997
0.999997
1
1
1
0.999998
0.999997
1
1
1
0.999997
1
0.999988
1.00001
1.00001
0.999999
0.999997
0.999999
0.999998
0.999999
0.999998
0.999996
0.999996
0.999997
0.999999
0.999999
1
1
0.999996
1
0.999989
1.00001
1.00001
1
0.999999
0.999999
1
1
0.999999
0.999998
1
0.999998
0.999999
1
0.999999
1
0.999993
0.999997
0.999991
1
1.00001
1.00001
1
1
0.999997
0.999998
0.999999
0.999998
0.999996
0.999998
0.999997
0.999997
0.999997
0.999997
0.999994
1
0.999993
1
1.00001
1.00001
1
1
0.999998
0.999999
0.999999
0.999999
1
0.999999
0.999999
1
0.999995
0.999998
0.999992
0.999998
0.999994
1
1.00001
1
1
1
1
0.999999
0.999999
0.999997
0.999997
1
1
1
0.999999
0.999998
0.999993
0.999999
0.999993
1
1
1
1
1
1
1
0.999999
1
1
0.999999
0.999998
0.999999
1
1
0.999997
0.999999
0.999995
1
1
1.00001
1.00001
1.00001
1
1
1
1
1
1
1.00001
1.00001
1
1
0.999997
1
0.999995
1
1
1
1
1
1.00001
1
0.999999
1
1
1
0.999997
0.999995
0.999999
0.999997
0.999991
0.999995
0.999992
1
1
1
1
1
1.00001
1.00001
1.00001
1
1.00001
1.00001
1.00001
1.00001
1.00001
1.00001
1.00001
1.00002
0.999991
0.999999
1.00001
1
0.999996
0.999991
0.999991
0.999988
0.999986
0.999985
0.999981
0.999979
0.999975
0.999972
0.999972
0.999972
0.999964
0.999966
0.999988
1
1.00001
1.00001
1.00002
1.00002
1.00003
1.00004
1.00004
1.00005
1.00006
1.00006
1.00007
1.00007
1.00008
1.00008
1.00008
1.00009
0.999982
1
1
0.999974
0.999943
0.999921
0.9999
0.999878
0.99986
0.999842
0.999828
0.999815
0.999802
0.999795
0.999786
0.999779
0.99977
0.999767
0.999965
1.00007
1.00018
1.00024
1.0003
1.00037
1.00043
1.00049
1.00054
1.00058
1.00062
1.00065
1.00067
1.00069
1.00071
1.00072
1.00073
1.00074
0.999753
0.999568
0.999366
0.999131
0.998913
0.998704
0.998509
0.998342
0.998201
0.998088
0.998002
0.997936
0.997889
0.997856
0.997838
0.997829
0.997822
0.997814
0.999992
1.00043
1.00095
1.00167
1.00247
1.00316
1.00368
1.00405
1.00429
1.00442
1.00447
1.00446
1.0044
1.00432
1.00421
1.00409
1.00396
1.00386
0.999945
0.996247
0.990161
0.98452
0.980273
0.977358
0.975527
0.97452
0.974115
0.974128
0.974432
0.974931
0.975556
0.976259
0.977006
0.977763
0.978549
0.979195
1.0214
1.05634
1.0798
1.09471
1.10362
1.10848
1.11069
1.11118
1.11056
1.10922
1.10743
1.10537
1.10317
1.1009
1.09862
1.09638
1.09417
1.09224
0.922802
0.82784
0.774466
0.743959
0.725618
0.714657
0.708441
0.705217
0.70388
0.70374
0.704359
0.705454
0.70684
0.708395
0.710039
0.711701
0.713398
0.714943
1.06291
1.12901
1.16726
1.19166
1.20826
1.21975
1.22781
1.23361
1.2379
1.24113
1.24365
1.24564
1.24725
1.24858
1.24971
1.25063
1.25155
1.25214
-2.09057e-19
7.09168e-20
-1.55247e-19
-1.31931e-19
-1.27738e-20
7.28458e-20
1.42577e-19
1.94025e-19
2.10258e-19
1.98382e-19
1.72944e-19
1.3922e-19
1.11502e-19
2.19412e-19
4.1255e-19
-1.66734e-18
-9.63917e-18
-1.29384e-18
1.13638e-16
3.4293e-16
-6.16844e-17
-3.17153e-15
-9.58043e-15
-7.94474e-15
3.83486e-14
1.77961e-13
3.77541e-13
3.13294e-13
-8.65127e-13
-4.4892e-12
-1.15173e-11
-2.03485e-11
-2.32434e-11
-2.30226e-12
7.26797e-11
2.40945e-10
5.38203e-10
9.71982e-10
1.48505e-09
1.91139e-09
1.93444e-09
1.06146e-09
-1.36915e-09
-6.13168e-09
-1.39962e-08
-2.55468e-08
-4.09407e-08
-5.96293e-08
-8.00649e-08
-9.94365e-08
-1.13484e-07
-1.16432e-07
-1.01086e-07
-5.9131e-08
1.8366e-08
1.4023e-07
3.14269e-07
5.462e-07
8.38488e-07
1.18916e-06
1.59066e-06
2.02887e-06
2.48233e-06
2.92179e-06
3.31013e-06
3.60268e-06
3.74808e-06
3.68944e-06
3.36619e-06
2.71624e-06
1.67845e-06
1.9557e-07
-1.7827e-06
-4.29648e-06
-7.37251e-06
-1.10209e-05
-1.52324e-05
-1.99755e-05
-2.51942e-05
-3.08064e-05
-3.67027e-05
-4.27455e-05
-4.87692e-05
-5.45812e-05
-5.99623e-05
-6.46698e-05
-6.8439e-05
-7.09868e-05
-7.2015e-05
-7.12143e-05
-6.82677e-05
-6.28553e-05
-5.46583e-05
-4.33638e-05
-2.86683e-05
-1.02827e-05
1.20642e-05
3.86208e-05
6.9607e-05
0.000105202
0.000145509
0.000190411
0.00023907
0.000291242
0.000346473
0.000404272
0.000464082
0.000525292
0.000587251
0.000649273
0.000710646
0.00077064
0.000828526
0.000883577
0.00093508
0.000982348
0.00102473
0.00106162
0.00109247
0.00111678
0.00113415
0.00114421
0.00114673
0.00114153
0.00112854
0.00110779
0.0010794
0.00104362
0.00100076
0.000951274
0.000895688
0.000834628
0.000768809
0.000699027
0.000626148
0.000551103
0.000474871
0.000398463
0.000322904
0.00024923
0.00017847
0.000111626
4.96362e-05
-6.6329e-06
-5.63604e-05
-9.87697e-05
-0.000133228
-0.00015929
-0.000176587
-0.000184783
-0.000183823
-0.000173908
-0.00015483
-0.000126925
-9.12881e-05
-4.75176e-05
3.76322e-06
6.13316e-05
0.000125354
0.000193367
0.000266375
0.000347317
0.000431504
0.000510286
0.000597083
0.000689756
0.000774681
0.00085151
0.000919865
0.000979601
0.00103086
0.00107386
0.00110877
0.00113542
0.0011538
0.00116079
0.00115801
0.0011138
0.00107994
0.000637712
8.6441e-18
1.4753e-18
8.05225e-19
-8.36191e-19
-2.18128e-18
-2.99686e-18
-3.26267e-18
-3.1405e-18
-2.82262e-18
-2.44272e-18
-2.06904e-18
-1.69815e-18
-1.30965e-18
-1.40874e-18
-3.51218e-18
-4.62782e-18
2.01037e-17
1.05359e-16
1.17511e-16
-6.08134e-16
-2.98013e-15
-5.0631e-15
4.78352e-15
5.06459e-14
1.4297e-13
1.91119e-13
-1.38959e-13
-1.49413e-12
-4.51823e-12
-8.71548e-12
-1.02199e-11
1.13153e-12
4.37997e-11
1.42521e-10
3.18137e-10
5.65518e-10
8.18414e-10
9.05242e-10
5.07009e-10
-8.63735e-10
-3.83803e-09
-9.09324e-09
-1.71619e-08
-2.81373e-08
-4.1288e-08
-5.46156e-08
-6.44216e-08
-6.49707e-08
-4.8354e-08
-4.66163e-09
7.74337e-08
2.09605e-07
4.02275e-07
6.62516e-07
9.9153e-07
1.38186e-06
1.81457e-06
2.25655e-06
2.65846e-06
2.95344e-06
3.05699e-06
2.86827e-06
2.27314e-06
1.14894e-06
-6.28854e-07
-3.17817e-06
-6.60031e-06
-1.09687e-05
-1.63167e-05
-2.2625e-05
-2.981e-05
-3.77119e-05
-4.60858e-05
-5.45944e-05
-6.28037e-05
-7.01822e-05
-7.61046e-05
-7.98594e-05
-8.06604e-05
-7.76638e-05
-6.9989e-05
-5.67425e-05
-3.70465e-05
-1.00686e-05
2.49454e-05
6.86388e-05
0.000121512
0.000183891
0.000255898
0.000337428
0.000428128
0.000527381
0.000634294
0.0007477
0.000866159
0.000987967
0.00111117
0.00123359
0.00135283
0.00146634
0.00157133
0.00166463
0.00174381
0.00180677
0.00185155
0.00187639
0.00187977
0.00186043
0.00181734
0.00174975
0.00165714
0.00153923
0.00139595
0.00122744
0.00103399
0.000816071
0.000574235
0.000309136
2.14797e-05
-0.000287993
-0.000618535
-0.000969409
-0.00133991
-0.00172935
-0.00213708
-0.00256251
-0.00300505
-0.00346412
-0.00393916
-0.0044296
-0.00493479
-0.00545406
-0.00598661
-0.00653151
-0.00708765
-0.00765374
-0.00822828
-0.00880957
-0.00939561
-0.00998405
-0.0105723
-0.0111576
-0.0117368
-0.0123067
-0.0128638
-0.0134043
-0.0139245
-0.0144204
-0.0148883
-0.0153236
-0.0157229
-0.0160839
-0.0164021
-0.0166741
-0.0168999
-0.017074
-0.0171953
-0.0172651
-0.0172744
-0.0172344
-0.0171355
-0.0169578
-0.016717
-0.0164361
-0.0160651
-0.0155694
-0.0149969
-0.0143831
-0.0137424
-0.0130797
-0.0123964
-0.0116918
-0.0109627
-0.0102003
-0.00939152
-0.00849958
-0.00749575
-0.0062127
-0.00474507
-0.00170854
3.49225e-17
-2.1423e-19
1.4593e-17
2.67933e-17
3.03526e-17
2.93448e-17
2.65715e-17
2.33472e-17
2.02096e-17
1.73583e-17
1.4878e-17
1.28108e-17
1.0789e-17
7.33779e-18
3.13569e-18
1.60738e-17
8.65951e-17
1.62207e-16
-2.42572e-16
-2.13329e-15
-5.06826e-15
-1.17669e-15
3.08829e-14
1.12643e-13
1.98768e-13
4.06407e-14
-9.35591e-13
-3.46041e-12
-7.4916e-12
-1.00915e-11
-2.26053e-12
3.37858e-11
1.23488e-10
2.89777e-10
5.28357e-10
7.65531e-10
8.02291e-10
2.58964e-10
-1.45248e-09
-5.08994e-09
-1.14325e-08
-2.09836e-08
-3.35075e-08
-4.74185e-08
-5.90903e-08
-6.22103e-08
-4.73576e-08
-2.02041e-09
8.87184e-08
2.40618e-07
4.677e-07
7.78615e-07
1.17206e-06
1.63155e-06
2.11995e-06
2.57446e-06
2.90282e-06
2.98148e-06
2.65676e-06
1.74965e-06
6.4872e-08
-2.5953e-06
-6.41258e-06
-1.153e-05
-1.80253e-05
-2.58828e-05
-3.49638e-05
-4.49787e-05
-5.54632e-05
-6.57593e-05
-7.5006e-05
-8.21391e-05
-8.59049e-05
-8.48868e-05
-7.75474e-05
-6.22834e-05
-3.74962e-05
-1.67548e-06
4.6509e-05
0.000108108
0.000183787
0.000273731
0.000377541
0.000494154
0.000621773
0.000757815
0.000898883
0.00104078
0.00117851
0.0013064
0.0014181
0.00150677
0.00156521
0.00158601
0.00156176
0.00148519
0.00134944
0.00114821
0.000876034
0.000528607
0.000103731
-0.000395394
-0.000966889
-0.00160868
-0.00231717
-0.00308758
-0.00391395
-0.00478919
-0.00570522
-0.00665305
-0.00762295
-0.00860453
-0.00958694
-0.010559
-0.0115095
-0.012427
-0.0133006
-0.0141197
-0.0148742
-0.015555
-0.0161536
-0.0166631
-0.0170775
-0.0173923
-0.0176044
-0.0177126
-0.017717
-0.0176196
-0.017424
-0.0171355
-0.0167613
-0.0163098
-0.015791
-0.0152162
-0.0145979
-0.0139496
-0.0132855
-0.0126206
-0.0119699
-0.0113486
-0.0107716
-0.0102534
-0.00980759
-0.0094462
-0.00918047
-0.00902114
-0.00897704
-0.00905388
-0.00925588
-0.00958626
-0.0100437
-0.0106232
-0.0113283
-0.0121561
-0.0130835
-0.0141094
-0.0152346
-0.0164363
-0.0176969
-0.0190312
-0.0203992
-0.0217929
-0.0232065
-0.0245877
-0.0259592
-0.0273248
-0.0286244
-0.0298217
-0.0308982
-0.0318447
-0.0326556
-0.0333262
-0.0338521
-0.0342234
-0.03443
-0.0344197
-0.0341915
-0.0333427
-0.0324592
-0.0273046
-2.80962e-17
-5.74159e-17
-1.86672e-16
-2.08731e-16
-1.89741e-16
-1.64852e-16
-1.41855e-16
-1.22096e-16
-1.05385e-16
-9.12252e-17
-7.91304e-17
-6.87669e-17
-6.0636e-17
-5.62361e-17
-5.0948e-17
-1.51896e-17
9.04559e-17
1.26195e-16
-6.17415e-16
-3.20998e-15
-6.07918e-15
2.24452e-15
4.77965e-14
1.48418e-13
2.25473e-13
-5.57755e-14
-1.39373e-12
-4.55154e-12
-9.08819e-12
-1.0667e-11
2.68362e-12
5.31867e-11
1.70119e-10
3.73916e-10
6.40665e-10
8.44448e-10
6.85309e-10
-3.73145e-10
-3.11332e-09
-8.46092e-09
-1.72052e-08
-2.94917e-08
-4.40788e-08
-5.74155e-08
-6.2692e-08
-4.91123e-08
-1.72849e-09
9.77729e-08
2.68946e-07
5.28824e-07
8.86396e-07
1.33547e-06
1.84639e-06
2.35746e-06
2.76734e-06
2.92979e-06
2.65267e-06
1.70281e-06
-1.81822e-07
-3.27125e-06
-7.81376e-06
-1.39975e-05
-2.19051e-05
-3.14632e-05
-4.23908e-05
-5.41516e-05
-6.59139e-05
-7.65248e-05
-8.45037e-05
-8.80616e-05
-8.51478e-05
-7.35284e-05
-5.08978e-05
-1.50215e-05
3.60938e-05
0.000104008
0.000189639
0.000293053
0.00041326
0.000548027
0.000693726
0.000845219
0.000995807
0.00113723
0.00125975
0.00135229
0.00140262
0.00139769
0.00132394
0.00116767
0.000915466
0.00055461
7.35303e-05
-0.000537819
-0.00128759
-0.0021817
-0.00322365
-0.00441422
-0.00575141
-0.00723012
-0.0088413
-0.0105737
-0.0124177
-0.0143602
-0.0163863
-0.0184795
-0.0206214
-0.0227919
-0.0249694
-0.0271311
-0.0292524
-0.0313079
-0.0332709
-0.035114
-0.0368088
-0.0383264
-0.0396378
-0.0407138
-0.0415253
-0.0420442
-0.0422429
-0.0420955
-0.0415776
-0.0406673
-0.0393448
-0.0375938
-0.0354013
-0.0327583
-0.0296603
-0.0261069
-0.0221035
-0.0176601
-0.0127921
-0.00752025
-0.00187078
0.00412472
0.0104294
0.0170015
0.0237949
0.0307589
0.0378386
0.0449763
0.0521123
0.0591864
0.0661377
0.0729026
0.0794194
0.0856316
0.0914815
0.0969065
0.101861
0.106326
0.110235
0.113526
0.116235
0.118311
0.119695
0.120411
0.120453
0.11979
0.118451
0.116424
0.1137
0.110386
0.106464
0.101886
0.0967473
0.0911715
0.0852619
0.0790942
0.0727194
0.066164
0.0594284
0.0524751
0.0452273
0.0375024
0.0291121
0.0193733
0.00892322
-0.00823311
-1.12194e-15
2.31361e-16
9.17282e-16
9.51647e-16
8.43596e-16
7.28369e-16
6.275e-16
5.42958e-16
4.72545e-16
4.13424e-16
3.63342e-16
3.20531e-16
2.82786e-16
2.47425e-16
2.19374e-16
2.30115e-16
3.18021e-16
3.31963e-16
-4.60229e-16
-3.17171e-15
-6.36081e-15
1.22105e-15
4.60598e-14
1.49679e-13
2.43593e-13
5.88429e-15
-1.27187e-12
-4.43998e-12
-9.27045e-12
-1.17023e-11
2.22173e-13
4.95902e-11
1.67952e-10
3.78789e-10
6.58449e-10
8.70356e-10
6.80423e-10
-5.17795e-10
-3.6138e-09
-9.64856e-09
-1.94529e-08
-3.29857e-08
-4.83594e-08
-6.06403e-08
-6.065e-08
-3.41498e-08
3.80735e-08
1.7862e-07
4.09813e-07
7.47556e-07
1.19263e-06
1.71985e-06
2.26603e-06
2.71856e-06
2.90674e-06
2.59869e-06
1.50674e-06
-6.95936e-07
-4.34529e-06
-9.7421e-06
-1.70937e-05
-2.64443e-05
-3.75979e-05
-5.00415e-05
-6.28744e-05
-7.4756e-05
-8.38801e-05
-8.79856e-05
-8.44134e-05
-7.02132e-05
-4.23049e-05
2.30848e-06
6.62806e-05
0.000151627
0.000259412
0.000389428
0.000539899
0.000707229
0.000885808
0.00106791
0.00124367
0.00140123
0.0015269
0.00160553
0.00162092
0.00155632
0.00139503
0.00112093
0.000719092
0.00017634
-0.000518309
-0.00137325
-0.00239404
-0.00358322
-0.00494037
-0.00646211
-0.00814242
-0.00997294
-0.0119436
-0.0140438
-0.0162673
-0.0186114
-0.0210634
-0.0236115
-0.0262424
-0.028942
-0.031695
-0.0344845
-0.0372923
-0.0400983
-0.0428802
-0.0456133
-0.0482707
-0.0508219
-0.0532338
-0.0554698
-0.0574893
-0.0592487
-0.0607006
-0.0617946
-0.0624772
-0.0626922
-0.0623815
-0.0614863
-0.0599467
-0.0577041
-0.0547013
-0.0508842
-0.046203
-0.040613
-0.0340769
-0.0265655
-0.0180584
-0.00854534
0.001973
0.0134847
0.0259653
0.039378
0.0536733
0.0687897
0.0846537
0.10118
0.118272
0.135824
0.153724
0.171852
0.190083
0.208298
0.226369
0.244147
0.261492
0.278341
0.294544
0.309918
0.324459
0.338023
0.350474
0.361756
0.371795
0.380522
0.387883
0.393822
0.398296
0.40132
0.402863
0.402871
0.401377
0.398466
0.394231
0.388752
0.382091
0.374272
0.36528
0.355014
0.343309
0.329645
0.313794
0.293107
0.271484
0.225249
1.32106e-14
5.89708e-16
-2.58322e-15
-3.38577e-15
-3.26945e-15
-2.95038e-15
-2.60808e-15
-2.29399e-15
-2.02068e-15
-1.78596e-15
-1.58404e-15
-1.40925e-15
-1.25797e-15
-1.12859e-15
-1.01461e-15
-8.87328e-16
-7.03473e-16
-5.52941e-16
-1.00977e-15
-3.16494e-15
-6.60771e-15
-3.39433e-15
2.8911e-14
1.17608e-13
2.33093e-13
1.46456e-13
-7.37437e-13
-3.31032e-12
-7.91426e-12
-1.20556e-11
-6.49184e-12
2.89088e-11
1.25236e-10
3.12686e-10
5.86722e-10
8.44529e-10
7.94745e-10
-1.35271e-10
-2.83974e-09
-8.43467e-09
-1.7909e-08
-3.14264e-08
-4.72339e-08
-6.02516e-08
-6.05951e-08
-3.24933e-08
4.57266e-08
1.99778e-07
4.54869e-07
8.27887e-07
1.31615e-06
1.88329e-06
2.44381e-06
2.84868e-06
2.8754e-06
2.22667e-06
5.41975e-07
-2.57418e-06
-7.50445e-06
-1.45507e-05
-2.38473e-05
-3.52614e-05
-4.82873e-05
-6.19463e-05
-7.47066e-05
-8.44362e-05
-8.84043e-05
-8.33419e-05
-6.55721e-05
-3.1213e-05
2.3553e-05
0.000102152
0.000207254
0.000340389
0.000501586
0.000689054
0.000898943
0.00112522
0.00135967
0.00159202
0.00181026
0.00200104
0.00215017
0.00224328
0.00226645
0.00220677
0.00205296
0.00179583
0.00142855
0.000946822
0.000348842
-0.000364881
-0.00119189
-0.00212825
-0.00316905
-0.004309
-0.005543
-0.00686666
-0.00827698
-0.00977405
-0.0113666
-0.013052
-0.014832
-0.0167083
-0.0186836
-0.020761
-0.0229441
-0.0252362
-0.02764
-0.030157
-0.032787
-0.0355269
-0.0383701
-0.0413056
-0.044317
-0.0473814
-0.0504686
-0.0535403
-0.0565487
-0.0594366
-0.062137
-0.0645725
-0.0666558
-0.0682905
-0.0693717
-0.0697877
-0.0694208
-0.0681504
-0.0658549
-0.0624136
-0.0577107
-0.0516376
-0.0440973
-0.0350055
-0.024294
-0.0119128
0.00216824
0.0179563
0.0354355
0.0545662
0.075287
0.0975136
0.12114
0.146037
0.172061
0.199047
0.226823
0.255212
0.284046
0.313117
0.342186
0.371151
0.399809
0.427927
0.455362
0.481956
0.507556
0.532038
0.555268
0.577137
0.597543
0.616395
0.633623
0.649169
0.66298
0.675007
0.685227
0.693648
0.70029
0.705181
0.708338
0.709762
0.709433
0.707242
0.703076
0.696381
0.687233
0.672428
0.657573
0.616358
-7.903e-14
-9.33742e-15
4.44255e-15
1.08768e-14
1.21341e-14
1.16918e-14
1.07148e-14
9.62694e-15
8.59546e-15
7.67125e-15
6.85891e-15
6.14628e-15
5.51846e-15
4.96197e-15
4.46868e-15
4.04769e-15
3.73032e-15
3.49203e-15
2.99585e-15
1.36204e-15
-1.95156e-15
-3.25071e-15
1.22519e-14
7.11515e-14
1.80847e-13
2.31894e-13
-1.64745e-13
-1.76981e-12
-5.35456e-12
-1.02565e-11
-1.12991e-11
5.55736e-12
6.62265e-11
2.04036e-10
4.38063e-10
7.23604e-10
8.69977e-10
4.37621e-10
-1.34419e-09
-5.55933e-09
-1.33712e-08
-2.5444e-08
-4.09233e-08
-5.59804e-08
-6.21076e-08
-4.4601e-08
1.80583e-08
1.52978e-07
3.88745e-07
7.47544e-07
1.23306e-06
1.81453e-06
2.40851e-06
2.861e-06
2.9343e-06
2.30337e-06
5.67594e-07
-2.71721e-06
-7.9827e-06
-1.55667e-05
-2.56095e-05
-3.79332e-05
-5.19164e-05
-6.63775e-05
-7.94851e-05
-8.87116e-05
-9.08517e-05
-8.21113e-05
-5.8279e-05
-1.4979e-05
5.201e-05
0.000146389
0.00027095
0.000427214
0.000615112
0.00083277
0.00107641
0.0013404
0.00161746
0.00189901
0.00217563
0.00243763
0.00267561
0.00288106
0.00304686
0.00316758
0.00323975
0.00326191
0.00323437
0.00315893
0.00303846
0.00287628
0.00267563
0.00243913
0.0021682
0.00186275
0.00152087
0.00113881
0.000711352
0.000233867
-0.000287711
-0.000860793
-0.0014939
-0.00219793
-0.00298602
-0.00387364
-0.0048785
-0.00602042
-0.00732112
-0.00880373
-0.0104922
-0.0124106
-0.0145818
-0.0170267
-0.0197619
-0.0227986
-0.0261405
-0.0297813
-0.0337024
-0.0378712
-0.0422386
-0.0467369
-0.0512787
-0.0557561
-0.0600406
-0.0639833
-0.067417
-0.0701591
-0.0720132
-0.0727736
-0.0722313
-0.0701787
-0.0664161
-0.0607576
-0.0530378
-0.0431175
-0.0308887
-0.0162774
0.000751716
0.020193
0.0420008
0.0660897
0.0923364
0.120581
0.150639
0.18229
0.21529
0.249383
0.284339
0.319892
0.355749
0.391667
0.427409
0.462742
0.497466
0.531392
0.56434
0.596171
0.626752
0.655982
0.683775
0.710059
0.734791
0.75793
0.779458
0.799366
0.817653
0.834334
0.84943
0.862968
0.874975
0.885472
0.894473
0.901945
0.907912
0.912047
0.914764
0.913797
0.913785
0.899373
3.38003e-13
5.99539e-14
3.43982e-16
-3.29419e-14
-4.40669e-14
-4.5724e-14
-4.36552e-14
-4.02031e-14
-3.64567e-14
-3.28757e-14
-2.96243e-14
-2.67232e-14
-2.41406e-14
-2.18373e-14
-1.97802e-14
-1.79355e-14
-1.62563e-14
-1.47035e-14
-1.33805e-14
-1.27858e-14
-1.3717e-14
-1.55268e-14
-1.13882e-14
1.70191e-14
9.2316e-14
1.94184e-13
1.45774e-13
-5.35012e-13
-2.63056e-12
-6.62812e-12
-1.09112e-11
-8.35612e-12
1.785e-11
9.57795e-11
2.56608e-10
5.06263e-10
7.66626e-10
7.84373e-10
2.62334e-11
-2.38631e-09
-7.6074e-09
-1.67306e-08
-3.0048e-08
-4.58195e-08
-5.86007e-08
-5.7409e-08
-2.43023e-08
6.57377e-08
2.42493e-07
5.34606e-07
9.59206e-07
1.50685e-06
2.12272e-06
2.68628e-06
2.9934e-06
2.74613e-06
1.55623e-06
-1.03148e-06
-5.49093e-06
-1.22397e-05
-2.1538e-05
-3.33686e-05
-4.73069e-05
-6.23992e-05
-7.70656e-05
-8.90468e-05
-9.54148e-05
-9.26588e-05
-7.68511e-05
-4.38929e-05
1.01821e-05
8.88637e-05
0.000194817
0.00032957
0.000493276
0.000684574
0.000900587
0.00113705
0.00138858
0.00164905
0.00191203
0.00217125
0.00242102
0.00265668
0.00287476
0.00307311
0.00325097
0.00340873
0.00354774
0.00367002
0.00377794
0.00387396
0.00396038
0.00403916
0.00411179
0.00417928
0.00424207
0.00430035
0.00435533
0.00441517
0.00448028
0.00454747
0.00461221
0.00466783
0.00470514
0.00471199
0.0046728
0.00456804
0.0043737
0.00406098
0.00359596
0.00293968
0.00204846
0.000874677
-0.000631881
-0.00252209
-0.00484486
-0.00764395
-0.010954
-0.0147963
-0.0191735
-0.0240653
-0.0294231
-0.0351664
-0.0411789
-0.0473068
-0.0533584
-0.0591057
-0.0642887
-0.0686196
-0.0717896
-0.073479
-0.0733675
-0.0711448
-0.066522
-0.0592418
-0.0490988
-0.035937
-0.0196573
-0.000226996
0.0223212
0.0478865
0.0763073
0.10736
0.140789
0.17628
0.213484
0.252049
0.291594
0.331751
0.372157
0.412469
0.452369
0.491556
0.529774
0.566798
0.60244
0.63655
0.669014
0.699749
0.728703
0.755853
0.781203
0.804772
0.826606
0.846758
0.865289
0.882279
0.897806
0.911945
0.924783
0.936397
0.946861
0.956225
0.964607
0.971877
0.978574
0.983306
0.989404
0.989968
-1.29885e-12
-3.11571e-13
-5.71551e-14
9.20337e-14
1.56221e-13
1.75926e-13
1.75595e-13
1.66215e-13
1.53423e-13
1.39977e-13
1.27169e-13
1.15462e-13
1.04906e-13
9.53966e-14
8.68203e-14
7.90796e-14
7.21055e-14
6.58556e-14
6.02641e-14
5.50846e-14
4.97083e-14
4.35332e-14
3.80937e-14
4.16305e-14
7.23872e-14
1.46675e-13
2.26381e-13
1.07932e-13
-7.02112e-13
-2.92529e-12
-6.83815e-12
-1.04219e-11
-6.06563e-12
2.32181e-11
1.04568e-10
2.65968e-10
5.0669e-10
7.37918e-10
6.92697e-10
-1.74429e-10
-2.74312e-09
-8.14063e-09
-1.73795e-08
-3.05821e-08
-4.57113e-08
-5.68708e-08
-5.2477e-08
-1.39151e-08
8.43876e-08
2.72313e-07
5.77662e-07
1.0152e-06
1.57106e-06
2.18364e-06
2.72357e-06
2.97693e-06
2.63707e-06
1.31118e-06
-1.45302e-06
-6.11639e-06
-1.30728e-05
-2.25519e-05
-3.4509e-05
-4.85144e-05
-6.36582e-05
-7.84896e-05
-9.10069e-05
-9.87112e-05
-9.87311e-05
-8.80139e-05
-6.35723e-05
-2.27634e-05
3.64295e-05
0.000115145
0.000213458
0.000330275
0.000463355
0.000609416
0.000764362
0.000923574
0.00108224
0.00123569
0.00137973
0.00151082
0.00162628
0.0017244
0.00180436
0.00186628
0.00191111
0.00194056
0.00195711
0.00196394
0.00196488
0.00196449
0.00196791
0.00198081
0.00200923
0.00205926
0.00213636
0.0022377
0.00236496
0.00252158
0.00271035
0.00293372
0.00319321
0.00348884
0.00381838
0.00417626
0.00455238
0.00493069
0.0052876
0.00559058
0.00579677
0.00585198
0.00569053
0.00523585
0.00440241
0.00309905
0.00123376
-0.00128027
-0.00451677
-0.00852748
-0.0133328
-0.0189123
-0.0251961
-0.0320576
-0.0393079
-0.0466941
-0.0539024
-0.0605682
-0.0662797
-0.070594
-0.0730542
-0.0732073
-0.0706278
-0.0649153
-0.0557517
-0.0428923
-0.0261759
-0.00553951
0.0189816
0.0472496
0.0790367
0.114034
0.151855
0.192062
0.234178
0.277705
0.322136
0.366974
0.411742
0.455996
0.499338
0.541416
0.58193
0.620635
0.657342
0.691913
0.724255
0.754322
0.782111
0.807648
0.830992
0.852221
0.871436
0.888753
0.904288
0.918172
0.930533
0.941501
0.951201
0.959747
0.967261
0.97383
0.979608
0.98453
0.989126
0.992303
0.996881
0.998154
5.04684e-12
1.46552e-12
4.14437e-13
-2.2378e-13
-5.42532e-13
-6.68702e-13
-6.98976e-13
-6.80909e-13
-6.40627e-13
-5.92015e-13
-5.42539e-13
-4.95752e-13
-4.52834e-13
-4.13783e-13
-3.78284e-13
-3.45999e-13
-3.16635e-13
-2.89942e-13
-2.65696e-13
-2.43735e-13
-2.24097e-13
-2.07142e-13
-1.93089e-13
-1.79944e-13
-1.59453e-13
-1.14755e-13
-3.22636e-14
5.04176e-14
-5.40811e-14
-7.91784e-13
-2.8135e-12
-6.38987e-12
-9.79834e-12
-6.42123e-12
1.86731e-11
8.97102e-11
2.32624e-10
4.49862e-10
6.68608e-10
6.60501e-10
-5.10262e-11
-2.2491e-09
-6.96191e-09
-1.51613e-08
-2.7093e-08
-4.11549e-08
-5.2362e-08
-5.06479e-08
-1.95287e-08
6.4051e-08
2.27658e-07
4.98051e-07
8.91834e-07
1.40199e-06
1.98127e-06
2.52455e-06
2.85387e-06
2.71062e-06
1.75975e-06
-3.89486e-07
-4.1437e-06
-9.86661e-06
-1.78052e-05
-2.80083e-05
-4.02492e-05
-5.39656e-05
-6.82302e-05
-8.17642e-05
-9.30016e-05
-0.000100203
-0.000101612
-9.56471e-05
-8.10881e-05
-5.72593e-05
-2.41623e-05
1.74511e-05
6.60829e-05
0.000119571
0.000175244
0.00023013
0.000281192
0.000325575
0.000360817
0.000385024
0.000396987
0.000396238
0.000383053
0.000358406
0.000323891
0.000281617
0.000234091
0.000184094
0.000134563
8.85012e-05
4.89082e-05
1.87394e-05
7.47377e-07
-3.41529e-06
2.53392e-06
1.84567e-05
4.80264e-05
9.52229e-05
0.000165319
0.000264875
0.000401813
0.000585266
0.000825144
0.0011313
0.00151217
0.00197286
0.0025126
0.00312164
0.00377783
0.00444307
0.00506012
0.00555037
0.00581301
0.00572652
0.00515368
0.0039496
0.00197028
-0.000913116
-0.00479903
-0.00973922
-0.0157229
-0.0226629
-0.0303851
-0.0386206
-0.0469973
-0.0550681
-0.06231
-0.0681455
-0.0719698
-0.0731745
-0.0711973
-0.0655067
-0.0556815
-0.0414093
-0.0225007
0.00109654
0.0292932
0.0618655
0.0984682
0.138649
0.181871
0.227529
0.274987
0.323592
0.372703
0.421706
0.470034
0.517181
0.562706
0.606245
0.647503
0.686267
0.72239
0.755787
0.786433
0.814354
0.839617
0.862324
0.882603
0.900597
0.916464
0.930372
0.942487
0.952975
0.961995
0.969706
0.976251
0.981761
0.98637
0.990172
0.993319
0.995761
0.997991
0.99899
1.00139
1.00072
-2.01181e-11
-6.55195e-12
-2.27636e-12
3.89275e-13
1.85856e-12
2.52803e-12
2.76755e-12
2.7735e-12
2.66016e-12
2.49138e-12
2.30416e-12
2.11898e-12
1.94527e-12
1.78529e-12
1.63865e-12
1.50436e-12
1.38137e-12
1.26883e-12
1.16604e-12
1.07238e-12
9.87214e-13
9.09747e-13
8.38909e-13
7.73746e-13
7.15196e-13
6.69652e-13
6.51533e-13
6.74947e-13
7.16059e-13
6.30755e-13
5.09211e-14
-1.61556e-12
-4.79374e-12
-8.53511e-12
-8.17935e-12
7.72902e-12
5.92498e-11
1.70994e-10
3.54907e-10
5.71707e-10
6.66891e-10
2.89802e-10
-1.17266e-09
-4.58465e-09
-1.08778e-08
-2.05862e-08
-3.30133e-08
-4.50256e-08
-4.96211e-08
-3.46292e-08
1.78648e-08
1.30592e-07
3.27842e-07
6.29211e-07
1.04015e-06
1.53984e-06
2.06784e-06
2.51189e-06
2.70006e-06
2.40054e-06
1.33216e-06
-8.12667e-07
-4.33283e-06
-9.47388e-06
-1.63792e-05
-2.50444e-05
-3.52834e-05
-4.67149e-05
-5.8775e-05
-7.07594e-05
-8.18933e-05
-9.14227e-05
-9.87146e-05
-0.000103354
-0.000105217
-0.000104519
-0.000101806
-9.79095e-05
-9.38535e-05
-9.07258e-05
-8.95347e-05
-9.1066e-05
-9.57632e-05
-0.000103648
-0.000114298
-0.000126878
-0.000140244
-0.000153088
-0.000164136
-0.00017235
-0.000177133
-0.000178483
-0.000177079
-0.00017427
-0.000171947
-0.000172304
-0.000177546
-0.000189659
-0.00020391
-0.00022094
-0.000240373
-0.000261265
-0.000281477
-0.000297096
-0.000301732
-0.000285825
-0.000236125
-0.000135599
3.59688e-05
0.000300355
0.000678045
0.00118402
0.0018223
0.00257959
0.00341872
0.00427282
0.00504121
0.0055875
0.00573937
0.00530638
0.00408563
0.00188198
-0.00146947
-0.00607871
-0.0119762
-0.0190908
-0.0272336
-0.0360943
-0.0452154
-0.0540359
-0.0618963
-0.068068
-0.0717932
-0.0723235
-0.0689623
-0.061113
-0.0483059
-0.0302281
-0.00674164
0.0221078
0.056094
0.0948241
0.137762
0.184256
0.233568
0.28491
0.337477
0.39048
0.443174
0.494874
0.544981
0.592987
0.638479
0.681149
0.720778
0.757242
0.790494
0.820557
0.847509
0.87148
0.892634
0.911153
0.927248
0.941128
0.953005
0.96309
0.97158
0.978669
0.984535
0.989336
0.993222
0.996321
0.998758
1.00062
1.00205
1.00298
1.00388
1.00377
1.00509
1.00369
8.11961e-11
2.8607e-11
1.11934e-11
1.94708e-13
-6.30744e-12
-9.55424e-12
-1.09444e-11
-1.12682e-11
-1.10093e-11
-1.04482e-11
-9.754e-12
-9.02841e-12
-8.32831e-12
-7.67407e-12
-7.06901e-12
-6.5111e-12
-5.99701e-12
-5.52361e-12
-5.0884e-12
-4.68919e-12
-4.32392e-12
-3.99056e-12
-3.68723e-12
-3.41233e-12
-3.16426e-12
-2.94011e-12
-2.73257e-12
-2.52661e-12
-2.30296e-12
-2.06347e-12
-1.89525e-12
-2.06975e-12
-3.10395e-12
-5.58548e-12
-9.42172e-12
-1.21537e-11
-6.33121e-12
2.30273e-11
9.80247e-11
2.39338e-10
4.42717e-10
6.34893e-10
6.09944e-10
-3.84338e-11
-1.95138e-09
-5.94355e-09
-1.27648e-08
-2.26063e-08
-3.43108e-08
-4.43342e-08
-4.56355e-08
-2.68344e-08
2.78857e-08
1.37571e-07
3.21488e-07
5.94037e-07
9.57711e-07
1.39478e-06
1.85893e-06
2.26858e-06
2.50384e-06
2.40888e-06
1.80078e-06
4.8513e-07
-1.72289e-06
-4.97445e-06
-9.36368e-06
-1.4909e-05
-2.15431e-05
-2.91145e-05
-3.74017e-05
-4.61383e-05
-5.50456e-05
-6.38676e-05
-7.24006e-05
-8.05119e-05
-8.81421e-05
-9.52891e-05
-0.000101974
-0.000108195
-0.000113883
-0.000118852
-0.000122785
-0.000125237
-0.000125671
-0.000123537
-0.000118369
-0.000109896
-9.81522e-05
-8.35557e-05
-6.69382e-05
-4.9515e-05
-3.27791e-05
-1.83352e-05
-7.68746e-06
-1.93172e-06
-8.83275e-07
-2.01697e-06
-5.27501e-06
-1.20243e-05
-2.38238e-05
-4.25162e-05
-6.97441e-05
-0.000106137
-0.000150034
-0.000196004
-0.000233282
-0.00024449
-0.000205228
-8.50785e-05
0.000149437
0.000529633
0.00107719
0.00179492
0.00265673
0.00359823
0.00451011
0.0052391
0.00557679
0.00528994
0.0041291
0.00185497
-0.00173029
-0.00674969
-0.0132189
-0.0210189
-0.0298761
-0.0393537
-0.0488613
-0.0576721
-0.0649565
-0.0698274
-0.0713923
-0.0688079
-0.0613356
-0.048389
-0.0295708
-0.00469971
0.0261798
0.0627999
0.104686
0.151186
0.201508
0.254761
0.310002
0.366277
0.422659
0.47829
0.5324
0.584325
0.633528
0.679596
0.722237
0.761275
0.796641
0.82836
0.856523
0.881292
0.902872
0.921496
0.937419
0.950906
0.962219
0.971613
0.97933
0.985597
0.990623
0.994597
0.997686
1.00004
1.00178
1.00302
1.00387
1.00439
1.00469
1.00471
1.00485
1.00421
1.005
1.00341
-3.30325e-10
-1.23313e-10
-5.20703e-11
-6.86565e-12
2.12548e-11
3.62321e-11
4.33611e-11
4.57822e-11
4.55045e-11
4.373e-11
4.12022e-11
3.83842e-11
3.55729e-11
3.29005e-11
3.04041e-11
2.80862e-11
2.5938e-11
2.39487e-11
2.21096e-11
2.04131e-11
1.88526e-11
1.74212e-11
1.61119e-11
1.49173e-11
1.38292e-11
1.28395e-11
1.19406e-11
1.11288e-11
1.04068e-11
9.78472e-12
9.26594e-12
8.80327e-12
8.21454e-12
7.08586e-12
4.77709e-12