/*--------------------------------*- C++ -*----------------------------------*\
| =========                 |                                                 |
| \\      /  F ield         | OpenFOAM: The Open Source CFD Toolbox           |
|  \\    /   O peration     | Version:  4.1                                   |
|   \\  /    A nd           | Web:      www.OpenFOAM.org                      |
|    \\/     M anipulation  |                                                 |
\*---------------------------------------------------------------------------*/
FoamFile
{
    version     2.0;
    format      ascii;
    class       volScalarField;
    location    "0.08";
    object      T;
}
// * * * * * * * * * * * * * * * * * * * * * * * * * * * * * * * * * * * * * //

dimensions      [0 0 0 1 0 0 0];

internalField   nonuniform List<scalar> 
12225
(
1.11552
1.23317
1.29917
1.34126
1.36974
1.38851
1.40119
1.41004
1.41642
1.42116
1.42479
1.42763
1.4299
1.43177
1.4333
1.43469
1.43581
1.43518
0.860947
0.707839
0.632408
0.594821
0.576427
0.569644
0.569414
0.572758
0.577971
0.584077
0.590513
0.596954
0.603214
0.609181
0.61481
0.619994
0.624958
0.628865
1.03458
1.08006
1.10414
1.11423
1.11556
1.11189
1.10559
1.09802
1.08996
1.08185
1.07398
1.06647
1.05942
1.05284
1.04677
1.04114
1.0362
1.0315
1.00165
0.998855
0.992981
0.988432
0.986044
0.98539
0.98593
0.9872
0.988859
0.990683
0.992533
0.994323
0.995998
0.997539
0.998939
1.00018
1.0013
1.00234
1.00023
1.00039
1.00026
1.00043
1.00067
1.0008
1.00084
1.0008
1.00072
1.00062
1.00051
1.00042
1.00033
1.00027
1.00023
1.00019
1.00021
1.00021
0.999584
0.999244
0.998899
0.998714
0.99862
0.998535
0.998453
0.99839
0.998342
0.998302
0.998271
0.998244
0.99822
0.998204
0.998189
0.998174
0.998175
0.998153
0.999929
1.00011
1.00016
1.00019
1.00023
1.00025
1.00026
1.00026
1.00026
1.00026
1.00026
1.00025
1.00024
1.00023
1.00022
1.00021
1.00021
1.00019
0.999971
1.00007
1.00006
1.00002
1.00001
1.00001
1.00001
1
1
1
1
1.00001
1.00002
1.00002
1.00002
1.00003
1.00003
1.00003
0.999979
1.00004
1.00003
1.00002
1.00002
1.00002
1.00002
1.00002
1.00002
1.00003
1.00003
1.00003
1.00003
1.00003
1.00003
1.00003
1.00003
1.00003
0.999978
1.00002
1.00001
0.999998
0.999998
1
0.999999
0.999997
0.999996
0.999997
0.999995
0.999996
1
0.999999
0.999995
1
0.999995
0.999997
0.999985
1.00001
1.00001
1
1
0.999997
0.999997
0.999997
1
1
1
0.999998
0.999997
1
1
1
0.999997
1
0.999988
1.00001
1.00001
0.999999
0.999997
0.999999
0.999998
0.999999
0.999998
0.999996
0.999996
0.999997
0.999999
0.999999
1
1
0.999996
1
0.999989
1.00001
1.00001
1
0.999999
0.999999
1
1
0.999999
0.999998
1
0.999998
0.999999
1
0.999999
1
0.999993
0.999997
0.999991
1
1.00001
1.00001
1
1
0.999997
0.999998
0.999999
0.999998
0.999996
0.999998
0.999997
0.999997
0.999997
0.999997
0.999994
1
0.999993
1
1.00001
1.00001
1
1
0.999998
0.999999
0.999999
0.999999
1
0.999999
0.999999
1
0.999995
0.999998
0.999992
0.999998
0.999994
1
1.00001
1
1
1
1
0.999999
0.999999
0.999997
0.999997
1
1
1
0.999999
0.999998
0.999993
0.999999
0.999993
1
1
1
1
1
1
1
0.999999
1
1
0.999999
0.999998
0.999999
1
1
0.999997
0.999999
0.999995
1
1
1.00001
1.00001
1.00001
1
1
1
1
1
1
1.00001
1.00001
1
1
0.999997
1
0.999995
1
1
1
1
1
1.00001
1
0.999999
1
1
1
0.999997
0.999995
0.999999
0.999997
0.999991
0.999995
0.999992
1
1
1
1
1
1.00001
1.00001
1.00001
1
1.00001
1.00001
1.00001
1.00001
1.00001
1.00001
1.00001
1.00002
0.999991
0.999999
1.00001
1
0.999996
0.999991
0.999991
0.999988
0.999986
0.999985
0.999981
0.999979
0.999975
0.999972
0.999972
0.999972
0.999964
0.999966
0.999988
1
1.00001
1.00001
1.00002
1.00002
1.00003
1.00004
1.00004
1.00005
1.00006
1.00006
1.00007
1.00007
1.00008
1.00008
1.00008
1.00009
0.999982
1
1
0.999974
0.999943
0.999921
0.9999
0.999878
0.99986
0.999842
0.999828
0.999815
0.999802
0.999795
0.999786
0.999779
0.99977
0.999767
0.999965
1.00007
1.00018
1.00024
1.0003
1.00037
1.00043
1.00049
1.00054
1.00058
1.00062
1.00065
1.00067
1.00069
1.00071
1.00072
1.00073
1.00074
0.999753
0.999568
0.999366
0.999131
0.998913
0.998704
0.998509
0.998342
0.998201
0.998088
0.998002
0.997936
0.997889
0.997856
0.997838
0.997829
0.997822
0.997814
0.999992
1.00043
1.00095
1.00167
1.00247
1.00316
1.00368
1.00405
1.00429
1.00442
1.00447
1.00446
1.0044
1.00432
1.00421
1.00409
1.00396
1.00386
0.999945
0.996247
0.990161
0.98452
0.980273
0.977358
0.975527
0.97452
0.974115
0.974128
0.974432
0.974931
0.975556
0.976259
0.977006
0.977763
0.978549
0.979195
1.0214
1.05634
1.0798
1.09471
1.10362
1.10848
1.11069
1.11118
1.11056
1.10922
1.10743
1.10537
1.10317
1.1009
1.09862
1.09638
1.09417
1.09224
0.922802
0.82784
0.774466
0.743959
0.725618
0.714657
0.708441
0.705217
0.70388
0.70374
0.704359
0.705454
0.70684
0.708395
0.710039
0.711701
0.713398
0.714943
1.06291
1.12901
1.16726
1.19166
1.20826
1.21975
1.22781
1.23361
1.2379
1.24113
1.24365
1.24564
1.24725
1.24858
1.24971
1.25063
1.25155
1.25214
3.37173e-19
6.72012e-19
-3.75026e-19
-4.10436e-19
-7.44161e-20
1.95787e-19
3.88848e-19
5.02571e-19
5.15966e-19
1.56722e-18
-1.24335e-19
-4.81833e-17
-3.28895e-17
1.06518e-15
2.65574e-15
-9.85183e-15
-5.69362e-14
-4.46298e-14
4.02468e-13
1.52338e-12
1.60156e-12
-5.12728e-12
-2.5575e-11
-5.29081e-11
-4.04466e-11
1.16092e-10
5.49602e-10
1.30796e-09
2.15177e-09
2.32158e-09
3.96785e-10
-5.60027e-09
-1.77295e-08
-3.72514e-08
-6.34307e-08
-9.22515e-08
-1.15361e-07
-1.19586e-07
-8.7332e-08
1.97515e-09
1.6935e-07
4.32789e-07
8.03182e-07
1.28002e-06
1.84743e-06
2.47089e-06
3.09531e-06
3.64463e-06
4.02306e-06
4.11824e-06
3.80649e-06
2.95938e-06
1.45167e-06
-8.29908e-07
-3.97748e-06
-8.0531e-06
-1.30803e-05
-1.90369e-05
-2.58489e-05
-3.33868e-05
-4.14632e-05
-4.98326e-05
-5.81939e-05
-6.61945e-05
-7.3436e-05
-7.94828e-05
-8.38708e-05
-8.6118e-05
-8.57359e-05
-8.22426e-05
-7.51729e-05
-6.4092e-05
-4.86064e-05
-2.83749e-05
-3.11885e-06
2.73699e-05
6.32209e-05
0.00010448
0.000151103
0.000202958
0.000259818
0.000321366
0.000387197
0.000456822
0.000529669
0.000605095
0.000682389
0.000760785
0.000839463
0.000917569
0.000994215
0.00106849
0.00113947
0.00120621
0.00126781
0.00132333
0.00137187
0.00141254
0.00144446
0.00146676
0.00147854
0.00147855
0.00146435
0.00143598
0.00139305
0.00133535
0.00126278
0.00117529
0.0010729
0.000955695
0.000823814
0.000677423
0.000516726
0.000341951
0.000153336
-4.88624e-05
-0.000264386
-0.000492969
-0.000734343
-0.000988239
-0.00125438
-0.00153248
-0.00182223
-0.00212334
-0.00243544
-0.00275816
-0.00309108
-0.00343372
-0.00378557
-0.00414601
-0.00451438
-0.00488991
-0.00527178
-0.00565903
-0.00605061
-0.00644535
-0.00684201
-0.00723926
-0.00763565
-0.0080296
-0.00841945
-0.00880348
-0.00917991
-0.0095469
-0.00990261
-0.0102451
-0.0105724
-0.0108829
-0.011175
-0.0114466
-0.0116961
-0.0119225
-0.0121236
-0.0122987
-0.0124485
-0.0125695
-0.0126621
-0.0127281
-0.0127635
-0.0127724
-0.0127398
-0.0126724
-0.0125948
-0.0124723
-0.0121996
-0.011752
-0.0112539
-0.0107545
-0.0102565
-0.00975751
-0.0092556
-0.00874785
-0.0082301
-0.007693
-0.00712614
-0.00649285
-0.00577713
-0.00479554
-0.00367157
-0.000884395
2.65918e-17
6.01685e-18
2.24691e-18
-2.34088e-18
-5.12879e-18
-6.18826e-18
-6.08151e-18
-4.98149e-18
-4.4565e-18
-1.83914e-17
-3.22086e-17
2.33791e-16
1.02399e-15
-8.64627e-16
-1.50826e-14
-3.2573e-14
5.20367e-14
4.38724e-13
9.35661e-13
-2.06767e-13
-6.76711e-12
-2.0539e-11
-2.92258e-11
9.93653e-12
1.72242e-10
5.21963e-10
9.97593e-10
1.23653e-09
4.11689e-10
-2.78561e-09
-9.85774e-09
-2.17921e-08
-3.79345e-08
-5.46164e-08
-6.38843e-08
-5.28042e-08
-3.84154e-09
1.03269e-07
2.87964e-07
5.63673e-07
9.31457e-07
1.37315e-06
1.845e-06
2.27282e-06
2.54979e-06
2.53784e-06
2.07318e-06
9.76369e-07
-9.33204e-07
-3.81909e-06
-7.80643e-06
-1.29587e-05
-1.9254e-05
-2.65628e-05
-3.46284e-05
-4.30523e-05
-5.12852e-05
-5.86245e-05
-6.42209e-05
-6.70929e-05
-6.61495e-05
-6.02213e-05
-4.80992e-05
-2.8578e-05
-5.07549e-07
3.71554e-05
8.5293e-05
0.000144573
0.000215396
0.000297853
0.000391678
0.000496222
0.000610429
0.000732818
0.000861487
0.00099412
0.00112801
0.00126008
0.00138697
0.00150501
0.00161039
0.00169913
0.00176723
0.0018107
0.00182571
0.0018086
0.00175601
0.00166496
0.00153292
0.00135787
0.00113838
0.000873654
0.000563556
0.000208669
-0.000189706
-0.000629536
-0.00110807
-0.00162183
-0.00216661
-0.00273746
-0.00332823
-0.00393001
-0.00453178
-0.0051278
-0.00571115
-0.00627532
-0.00681391
-0.00732089
-0.00779054
-0.00821754
-0.00859707
-0.00892479
-0.00919694
-0.00941042
-0.0095627
-0.00965196
-0.00967709
-0.00963773
-0.00953418
-0.00936752
-0.00913963
-0.00885307
-0.00851111
-0.00811775
-0.00767762
-0.00719607
-0.00667899
-0.00613283
-0.00556456
-0.00498154
-0.00439149
-0.00380239
-0.00322242
-0.0026599
-0.00212319
-0.00162064
-0.00116037
-0.00075013
-0.000397355
-0.000109114
0.000107869
0.000247539
0.000304807
0.000275528
0.000156162
-5.65485e-05
-0.000364218
-0.00076644
-0.0012628
-0.00185377
-0.00253711
-0.00330653
-0.00415967
-0.00509
-0.00608604
-0.00715276
-0.00827953
-0.00944776
-0.0106733
-0.0119375
-0.013204
-0.0145349
-0.015913
-0.0172466
-0.0186505
-0.0201612
-0.0216495
-0.0230569
-0.024365
-0.0255686
-0.0266659
-0.0276558
-0.028538
-0.0293091
-0.0299701
-0.0304842
-0.0308954
-0.0307887
-0.0310245
-0.02649
7.84108e-17
-5.39958e-19
3.48356e-17
4.87975e-17
4.66313e-17
4.05937e-17
3.50005e-17
2.91888e-17
1.09004e-17
-7.29873e-18
2.06053e-16
9.23292e-16
-1.73156e-16
-1.13513e-14
-3.02016e-14
1.98679e-14
3.19093e-13
8.22351e-13
2.85956e-13
-4.49703e-12
-1.61597e-11
-2.70114e-11
-3.37804e-12
1.21237e-10
4.14054e-10
8.40329e-10
1.08788e-09
3.8117e-10
-2.57298e-09
-9.31237e-09
-2.08436e-08
-3.63107e-08
-5.12753e-08
-5.6041e-08
-3.46911e-08
3.43699e-08
1.75649e-07
4.11123e-07
7.52147e-07
1.18934e-06
1.68166e-06
2.14653e-06
2.45302e-06
2.42041e-06
1.82409e-06
4.10037e-07
-2.08112e-06
-5.88128e-06
-1.11545e-05
-1.7951e-05
-2.61604e-05
-3.54658e-05
-4.5305e-05
-5.48432e-05
-6.29605e-05
-6.82587e-05
-6.90898e-05
-6.36075e-05
-4.98429e-05
-2.58024e-05
1.04163e-05
6.04894e-05
0.000125724
0.00020691
0.000304174
0.000416841
0.000543319
0.000680998
0.000826185
0.00097407
0.00111873
0.00125319
0.00136947
0.00145876
0.00151159
0.00151799
0.00146773
0.00135062
0.00115673
0.000876704
0.000502025
2.52816e-05
-0.000559571
-0.00125699
-0.00206963
-0.00299823
-0.00404142
-0.00519574
-0.00645558
-0.00781321
-0.00925888
-0.0107809
-0.0123659
-0.0139989
-0.0156637
-0.0173431
-0.0190191
-0.0206732
-0.0222864
-0.0238397
-0.0253126
-0.0266782
-0.0279234
-0.0290327
-0.0299917
-0.0307868
-0.0314048
-0.0318333
-0.0320603
-0.0320747
-0.0318661
-0.0314244
-0.0307404
-0.0298055
-0.0286121
-0.0271531
-0.0254225
-0.0234154
-0.0211277
-0.0185568
-0.0157013
-0.0125613
-0.00913837
-0.00543577
-0.00145855
0.00278639
0.0072902
0.012042
0.0170287
0.0222353
0.0276446
0.0332373
0.0389921
0.0448856
0.0508926
0.0569859
0.0631367
0.0693151
0.0754902
0.0816296
0.0876998
0.0936668
0.0994966
0.105156
0.110612
0.11583
0.120776
0.125423
0.129744
0.13371
0.137293
0.140481
0.143235
0.145545
0.147444
0.148861
0.149769
0.150247
0.150193
0.149609
0.148558
0.146898
0.144622
0.141916
0.138654
0.134654
0.130042
0.124993
0.11962
0.113989
0.108134
0.102057
0.095737
0.0890999
0.0820333
0.0742377
0.0654746
0.0543563
0.0420968
0.0164517
-8.41127e-17
-1.49182e-16
-2.84309e-16
-2.57752e-16
-2.13435e-16
-1.77345e-16
-1.48721e-16
-1.33387e-16
-1.42453e-16
-6.92123e-17
4.80822e-16
1.04927e-15
-3.71237e-15
-2.22253e-14
-2.933e-14
1.05466e-13
5.522e-13
9.38907e-13
-7.6184e-13
-8.27347e-12
-2.21999e-11
-2.72257e-11
2.37352e-11
2.0757e-10
5.75703e-10
1.01535e-09
1.04019e-09
-3.94547e-10
-4.8626e-09
-1.39786e-08
-2.82518e-08
-4.52663e-08
-5.74839e-08
-5.03415e-08
-1.64374e-09
1.16606e-07
3.32937e-07
6.67183e-07
1.1176e-06
1.64561e-06
2.16057e-06
2.50771e-06
2.46314e-06
1.73942e-06
5.01233e-09
-3.08073e-06
-7.81685e-06
-1.43965e-05
-2.28334e-05
-3.28845e-05
-4.39782e-05
-5.51565e-05
-6.50397e-05
-7.18239e-05
-7.33189e-05
-6.70311e-05
-5.02935e-05
-2.04443e-05
2.49531e-05
8.7855e-05
0.000169459
0.000269917
0.000388058
0.000521131
0.000664591
0.000811957
0.00095472
0.00108236
0.00118243
0.00124077
0.00124179
0.00116884
0.00100466
0.000731909
0.000333717
-0.000205747
-0.000900699
-0.00176318
-0.00280259
-0.00402522
-0.00543394
-0.00702797
-0.00880275
-0.01075
-0.0128577
-0.0151105
-0.0174899
-0.0199749
-0.0225424
-0.0251676
-0.0278249
-0.0304882
-0.0331318
-0.0357307
-0.038261
-0.0407004
-0.0430288
-0.0452279
-0.0472817
-0.049177
-0.0509048
-0.0524673
-0.0538568
-0.0550659
-0.056087
-0.0569119
-0.057532
-0.0579376
-0.0581179
-0.0580609
-0.0577533
-0.0571798
-0.0563239
-0.0551677
-0.0536914
-0.0518735
-0.0496916
-0.0471222
-0.0441406
-0.0407218
-0.0368404
-0.0324713
-0.0275902
-0.0221736
-0.0161998
-0.00964898
-0.00250401
0.00524921
0.0136213
0.0226187
0.0322433
0.0424924
0.0533582
0.0648277
0.0768823
0.0894981
0.102645
0.116288
0.130387
0.144894
0.15976
0.17493
0.190344
0.205939
0.221651
0.237409
0.253144
0.268783
0.284255
0.299483
0.314403
0.328965
0.343063
0.3566
0.369638
0.382032
0.393658
0.404604
0.414709
0.423902
0.432156
0.439403
0.445597
0.450747
0.454783
0.457573
0.459117
0.45949
0.458762
0.45698
0.45417
0.450324
0.445392
0.43923
0.431655
0.422012
0.410146
0.392394
0.373887
0.32286
-2.05187e-15
5.31517e-16
9.9029e-16
9.62583e-16
8.38878e-16
7.22512e-16
6.22069e-16
5.24875e-16
4.26263e-16
5.10218e-16
1.19184e-15
1.30676e-15
-6.0571e-15
-2.7537e-14
-2.43977e-14
1.53761e-13
6.54451e-13
9.64549e-13
-1.18834e-12
-9.60847e-12
-2.42788e-11
-2.80138e-11
2.94691e-11
2.28464e-10
6.203e-10
1.07988e-09
1.08094e-09
-5.06411e-10
-5.38725e-09
-1.53006e-08
-3.07183e-08
-4.87371e-08
-6.0491e-08
-4.88952e-08
1.20141e-08
1.54629e-07
4.10825e-07
7.99773e-07
1.31085e-06
1.88353e-06
2.38763e-06
2.60884e-06
2.24514e-06
9.1966e-07
-1.78524e-06
-6.2705e-06
-1.284e-05
-2.16017e-05
-3.23584e-05
-4.44998e-05
-5.6911e-05
-6.7912e-05
-7.52456e-05
-7.61277e-05
-6.73686e-05
-4.55741e-05
-7.42148e-06
4.99946e-05
0.000128764
0.000229732
0.000352067
0.000492858
0.00064677
0.000805804
0.000959163
0.00109329
0.00119203
0.00123702
0.00120816
0.00108432
0.000844083
0.000466649
-6.7278e-05
-0.000774576
-0.00166886
-0.00275973
-0.00405216
-0.0055461
-0.00723624
-0.00911207
-0.0111581
-0.0133543
-0.0156768
-0.0180988
-0.0205914
-0.0231249
-0.0256693
-0.0281963
-0.0306791
-0.0330941
-0.0354213
-0.0376447
-0.0397527
-0.0417381
-0.0435976
-0.0453321
-0.0469456
-0.0484452
-0.0498406
-0.0511456
-0.0523863
-0.0535831
-0.0547424
-0.0558717
-0.0569767
-0.058061
-0.0591259
-0.0601698
-0.0611886
-0.0621744
-0.0631156
-0.0639967
-0.0647985
-0.0654963
-0.0660615
-0.0664607
-0.0666547
-0.0666003
-0.066249
-0.0655482
-0.0644411
-0.0628669
-0.0607624
-0.0580619
-0.0546987
-0.0506057
-0.0457167
-0.0399675
-0.0332972
-0.0256495
-0.0169744
-0.00722901
0.00362139
0.0156025
0.0287302
0.0430097
0.0584349
0.0749872
0.0926363
0.111341
0.131048
0.151697
0.173213
0.195513
0.218505
0.242094
0.266181
0.290662
0.315429
0.340359
0.365329
0.390291
0.415123
0.439609
0.463825
0.487634
0.510841
0.533423
0.555283
0.57637
0.596609
0.615917
0.63425
0.651541
0.667736
0.682772
0.696603
0.709216
0.720606
0.730767
0.739688
0.74734
0.753678
0.758588
0.761983
0.763307
0.762812
0.757087
0.751977
0.721546
1.88492e-14
4.48493e-17
-2.38287e-15
-3.32827e-15
-3.23001e-15
-2.92589e-15
-2.59093e-15
-2.29676e-15
-2.05345e-15
-1.65422e-15
-6.97829e-16
-4.36909e-16
-7.62188e-15
-2.84879e-14
-2.71623e-14
1.35902e-13
6.10358e-13
9.81922e-13
-7.52569e-13
-8.23371e-12
-2.24582e-11
-3.00075e-11
1.29886e-11
1.83566e-10
5.47204e-10
1.02882e-09
1.19478e-09
2.12069e-11
-4.16118e-09
-1.3253e-08
-2.81973e-08
-4.68669e-08
-6.12469e-08
-5.46772e-08
-5.17858e-10
1.35964e-07
3.90646e-07
7.87266e-07
1.31778e-06
1.91823e-06
2.44407e-06
2.65114e-06
2.18987e-06
6.20418e-07
-2.5443e-06
-7.76403e-06
-1.53655e-05
-2.54113e-05
-3.75559e-05
-5.0905e-05
-6.39008e-05
-7.42557e-05
-7.89586e-05
-7.43731e-05
-5.6438e-05
-2.09767e-05
3.58915e-05
0.000117263
0.000224909
0.000358729
0.000516239
0.000692158
0.000878126
0.00106261
0.00123104
0.00136615
0.00144859
0.00145774
0.00137269
0.00117336
0.00084172
0.000362893
-0.000273753
-0.00107372
-0.00203675
-0.00315648
-0.00442044
-0.00581038
-0.00730301
-0.00887084
-0.0104836
-0.0121095
-0.0137166
-0.0152747
-0.0167564
-0.0181382
-0.0194021
-0.0205355
-0.0215324
-0.0223926
-0.0231223
-0.0237328
-0.0242404
-0.0246652
-0.0250297
-0.0253586
-0.0256772
-0.0260106
-0.0263832
-0.0268181
-0.0273366
-0.0279426
-0.0286534
-0.0294818
-0.0304405
-0.0315406
-0.0327921
-0.0342036
-0.0357814
-0.0375297
-0.0394494
-0.0415381
-0.0437888
-0.0461895
-0.0487222
-0.0513619
-0.0540762
-0.0568239
-0.0595543
-0.0622074
-0.0647127
-0.0669898
-0.068948
-0.0704877
-0.0715006
-0.0718719
-0.0714804
-0.0702022
-0.0679121
-0.0644861
-0.0598046
-0.0537552
-0.0462366
-0.0371599
-0.0264517
-0.0140563
6.26319e-05
0.0159191
0.0335045
0.0527874
0.0737151
0.0962141
0.12019
0.145527
0.172096
0.199748
0.228327
0.257673
0.287638
0.318046
0.348671
0.379427
0.410177
0.440694
0.470862
0.500554
0.529656
0.558083
0.585732
0.612528
0.638405
0.663303
0.687192
0.710031
0.731799
0.752485
0.772078
0.790585
0.808015
0.824385
0.839702
0.853975
0.867219
0.879398
0.890562
0.900426
0.909499
0.91575
0.923437
0.920729
-8.90843e-14
-8.60124e-15
4.24682e-15
1.0883e-14
1.2141e-14
1.1703e-14
1.07249e-14
9.62191e-15
8.56116e-15
7.75755e-15
7.58088e-15
7.20923e-15
1.32969e-15
-1.68801e-14
-2.55734e-14
8.12329e-14
4.58069e-13
9.16687e-13
6.78299e-14
-5.16928e-12
-1.7183e-11
-2.91311e-11
-1.04022e-11
1.03233e-10
3.88274e-10
8.43891e-10
1.21058e-09
7.29967e-10
-2.01889e-09
-8.95016e-09
-2.16375e-08
-3.95438e-08
-5.73153e-08
-6.16483e-08
-2.89082e-08
7.46702e-08
2.88023e-07
6.43589e-07
1.14804e-06
1.75638e-06
2.34304e-06
2.6762e-06
2.40421e-06
1.06385e-06
-1.87997e-06
-6.95664e-06
-1.45726e-05
-2.48597e-05
-3.75018e-05
-5.1561e-05
-6.53292e-05
-7.6236e-05
-8.08429e-05
-7.49482e-05
-5.38194e-05
-1.25547e-05
5.34372e-05
0.000147871
0.000272978
0.000428906
0.000613219
0.000820524
0.00104231
0.00126706
0.00148059
0.00166674
0.00180828
0.00188801
0.00188998
0.00180082
0.00161086
0.00131517
0.000914294
0.000414638
-0.000171597
-0.000826831
-0.00152897
-0.00225259
-0.00297041
-0.0036549
-0.00427993
-0.0048223
-0.00526308
-0.00558871
-0.00579155
-0.00587016
-0.00582919
-0.0056788
-0.00543383
-0.00511269
-0.00473632
-0.0043269
-0.00390681
-0.00349777
-0.00312005
-0.00279216
-0.00253055
-0.00234934
-0.00225937
-0.00226264
-0.00234147
-0.00250888
-0.00277423
-0.00314918
-0.00364662
-0.00428114
-0.00506904
-0.00602833
-0.00717861
-0.00854068
-0.0101361
-0.0119864
-0.014112
-0.0165315
-0.0192593
-0.0223045
-0.0256689
-0.0293444
-0.033311
-0.0375347
-0.0419655
-0.0465347
-0.0511542
-0.0557157
-0.0600903
-0.0641291
-0.0676648
-0.0705149
-0.0724835
-0.0733653
-0.0729519
-0.0710365
-0.0674203
-0.0619182
-0.054366
-0.0446257
-0.0325903
-0.018187
-0.00138135
0.0178198
0.0393696
0.0631811
0.0891297
0.117055
0.146774
0.178064
0.210683
0.244374
0.278905
0.31402
0.349428
0.384889
0.420169
0.45504
0.489316
0.522816
0.555374
0.586862
0.617165
0.646197
0.673896
0.700212
0.725126
0.748625
0.77072
0.791433
0.810796
0.828854
0.845659
0.861268
0.875741
0.889134
0.901506
0.912888
0.923392
0.93287
0.941874
0.949023
0.957646
0.961385
3.36446e-13
6.02451e-14
-2.28153e-17
-3.30373e-14
-4.41369e-14
-4.5767e-14
-4.36868e-14
-4.0237e-14
-3.65121e-14
-3.28754e-14
-2.91946e-14
-2.5732e-14
-2.56924e-14
-3.54425e-14
-4.80508e-14
-7.94417e-16
2.38693e-13
6.7965e-13
6.19413e-13
-2.06108e-12
-1.02546e-11
-2.29192e-11
-2.43601e-11
2.86813e-11
2.06316e-10
5.61491e-10
1.00982e-09
1.12645e-09
-7.68927e-11
-4.22098e-09
-1.31869e-08
-2.79696e-08
-4.65386e-08
-6.08391e-08
-5.36588e-08
3.17582e-09
1.47153e-07
4.17596e-07
8.40438e-07
1.40475e-06
2.03291e-06
2.54945e-06
2.65659e-06
1.92731e-06
-1.72753e-07
-4.22439e-06
-1.07493e-05
-2.00608e-05
-3.20809e-05
-4.61431e-05
-6.08083e-05
-7.37282e-05
-8.15908e-05
-8.01788e-05
-6.45632e-05
-2.94388e-05
3.04121e-05
0.000119557
0.000241307
0.000397124
0.000586127
0.000804762
0.00104669
0.00130298
0.00156254
0.00181287
0.002041
0.0022346
0.00238309
0.0024788
0.00251772
0.00250018
0.00243099
0.00231933
0.00217806
0.00202276
0.00187052
0.00173844
0.00164226
0.00159503
0.00160603
0.00168009
0.00181727
0.00201308
0.00225903
0.00254353
0.00285314
0.00317368
0.00349163
0.00379503
0.00407444
0.00432336
0.00453838
0.00471902
0.00486722
0.00498674
0.00508231
0.00515925
0.00522411
0.00529062
0.00535271
0.00540929
0.00545628
0.00548796
0.00549615
0.0054697
0.00539406
0.00525069
0.00501651
0.00466355
0.00415869
0.00346363
0.00253524
0.00132637
-0.000212805
-0.00213288
-0.00448256
-0.00730545
-0.0106362
-0.0144959
-0.0188874
-0.0237903
-0.0291562
-0.0349048
-0.0409197
-0.0470475
-0.0530964
-0.0588387
-0.0640147
-0.0683366
-0.0714959
-0.0731731
-0.073048
-0.0708107
-0.0661726
-0.0588767
-0.0487181
-0.0355411
-0.0192473
0.000195477
0.0227538
0.048326
0.0767496
0.1078
0.14122
0.176694
0.213872
0.252398
0.291892
0.331982
0.372301
0.412505
0.452273
0.491301
0.529331
0.566134
0.601518
0.635331
0.667456
0.697807
0.726333
0.753007
0.777833
0.800832
0.822052
0.841547
0.859384
0.87565
0.89043
0.903809
0.915883
0.926741
0.93647
0.945133
0.952862
0.959553
0.96575
0.97021
0.97603
0.977544
-1.28077e-12
-3.13403e-13
-5.70134e-14
9.19613e-14
1.56177e-13
1.75891e-13
1.75568e-13
1.6619e-13
1.53386e-13
1.39948e-13
1.27357e-13
1.16178e-13
1.05066e-13
8.94247e-14
6.72756e-14
6.41207e-14
1.64645e-13
4.62385e-13
7.60237e-13
-2.06255e-14
-4.15373e-12
-1.34871e-11
-2.35731e-11
-1.30267e-11
6.58768e-11
2.77966e-10
6.48927e-10
1.03542e-09
9.25974e-10
-7.50897e-10
-5.62821e-09
-1.54257e-08
-3.06837e-08
-4.85272e-08
-5.96501e-08
-4.53234e-08
2.40269e-08
1.86475e-07
4.80067e-07
9.26248e-07
1.50493e-06
2.12352e-06
2.58541e-06
2.56689e-06
1.61389e-06
-8.29674e-07
-5.35171e-06
-1.24553e-05
-2.23986e-05
-3.50036e-05
-4.94574e-05
-6.4136e-05
-7.64871e-05
-8.30073e-05
-7.93403e-05
-6.05135e-05
-2.13079e-05
4.32615e-05
0.000137399
0.000263977
0.00042405
0.000616505
0.000837912
0.00108262
0.00134308
0.00161047
0.00187538
0.00212874
0.00236265
0.00257114
0.00275068
0.00290049
0.00302243
0.00312063
0.00320078
0.00326926
0.0033322
0.0033945
0.00345912
0.00352662
0.00359496
0.00365987
0.00371532
0.00375441
0.00377038
0.00375756
0.00371226
0.00363334
0.00352259
0.00338463
0.00322663
0.00305761
0.00288778
0.00272774
0.00258777
0.00247721
0.00240404
0.00237436
0.00239079
0.00243977
0.00252131
0.00263818
0.00279243
0.00298588
0.00321954
0.00349301
0.00380366
0.0041456
0.00450844
0.00487586
0.00522401
0.00552016
0.00572121
0.00577279
0.00560902
0.00515316
0.00431953
0.0030168
0.00115285
-0.00135926
-0.00459336
-0.00860127
-0.0134034
-0.0189795
-0.0252597
-0.0321174
-0.0393637
-0.0467456
-0.0539494
-0.0606104
-0.0663168
-0.0706256
-0.0730799
-0.0732266
-0.0706399
-0.0649195
-0.055747
-0.0428775
-0.0261499
-0.00550067
0.0190348
0.0473192
0.0791246
0.114142
0.151987
0.19222
0.234365
0.277924
0.32239
0.367268
0.412077
0.456377
0.499769
0.541898
0.582465
0.621226
0.657989
0.692615
0.72501
0.755128
0.78296
0.808532
0.831899
0.853138
0.872345
0.889632
0.905113
0.918914
0.93116
0.941977
0.951487
0.9598
0.967035
0.973274
0.978665
0.983134
0.987204
0.98974
0.993629
0.993749
5.04923e-12
1.46452e-12
4.15101e-13
-2.23644e-13
-5.42418e-13
-6.68628e-13
-6.98916e-13
-6.80857e-13
-6.40588e-13
-5.9199e-13
-5.42451e-13
-4.9535e-13
-4.52162e-13
-4.15054e-13
-3.87512e-13
-3.64894e-13
-3.09998e-13
-1.40289e-13
1.80017e-13
3.1853e-13
-9.14499e-13
-5.56841e-12
-1.45424e-11
-2.17656e-11
-4.79924e-12
8.18514e-11
2.94632e-10
6.45208e-10
9.79181e-10
7.96033e-10
-9.18353e-10
-5.6802e-09
-1.5058e-08
-2.94966e-08
-4.62444e-08
-5.65456e-08
-4.28149e-08
2.27893e-08
1.7635e-07
4.54444e-07
8.78822e-07
1.43311e-06
2.03353e-06
2.49871e-06
2.52694e-06
1.69146e-06
-5.34765e-07
-4.71571e-06
-1.13458e-05
-2.07035e-05
-3.2678e-05
-4.65899e-05
-6.10366e-05
-7.37948e-05
-8.18102e-05
-8.13004e-05
-6.79777e-05
-3.73856e-05
1.4679e-05
9.17018e-05
0.000196003
0.000328368
0.000487805
0.00067149
0.000874895
0.00109211
0.00131631
0.00154034
0.00175725
0.00196087
0.00214615
0.00230936
0.00244809
0.00256105
0.0026477
0.00270789
0.00274143
0.00274778
0.00272603
0.00267491
0.00259315
0.00247992
0.00233535
0.00216104
0.00196035
0.00173856
0.00150263
0.00126079
0.00102181
0.000794235
0.000585612
0.000401843
0.000246834
0.000122448
2.87745e-05
-3.53786e-05
-7.20363e-05
-8.45195e-05
-8.2065e-05
-6.66569e-05
-3.52504e-05
1.53521e-05
8.9909e-05
0.000194565
0.00033694
0.000525944
0.000771326
0.00108282
0.0014688
0.0019343
0.00247853
0.00309172
0.0037517
0.00442037
0.0050405
0.00553347
0.00579849
0.00571406
0.00514295
0.00394029
0.00196209
-0.000920458
-0.0048058
-0.00974567
-0.0157293
-0.0226695
-0.030392
-0.0386282
-0.0470057
-0.0550776
-0.0623209
-0.0681579
-0.071984
-0.0731907
-0.0712158
-0.0655277
-0.0557052
-0.041436
-0.0225306
0.0010631
0.029256
0.0618243
0.0984229
0.1386
0.181816
0.227471
0.274924
0.323525
0.372631
0.421631
0.469956
0.5171
0.562625
0.606164
0.647424
0.686193
0.722323
0.755731
0.78639
0.814329
0.839616
0.86235
0.882663
0.900695
0.916607
0.930566
0.942737
0.953288
0.962374
0.970155
0.976775
0.982361
0.987045
0.990922
0.994142
0.996651
0.998942
0.999986
1.00243
1.00173
-2.01512e-11
-6.54868e-12
-2.27603e-12
3.89529e-13
1.85873e-12
2.52815e-12
2.76764e-12
2.77357e-12
2.66022e-12
2.49141e-12
2.30418e-12
2.1191e-12
1.94571e-12
1.78565e-12
1.63623e-12
1.49383e-12
1.36533e-12
1.28895e-12
1.33534e-12
1.50728e-12
1.44805e-12
4.71356e-14
-4.4715e-12
-1.27119e-11
-1.9086e-11
-3.85819e-12
7.26234e-11
2.60433e-10
5.74757e-10
8.95434e-10
8.13321e-10
-5.2362e-10
-4.43322e-09
-1.23765e-08
-2.5036e-08
-4.06138e-08
-5.24167e-08
-4.6243e-08
1.32078e-09
1.22006e-07
3.50364e-07
7.1191e-07
1.20418e-06
1.77187e-06
2.27992e-06
2.49087e-06
2.0555e-06
5.26072e-07
-2.59969e-06
-7.79945e-06
-1.5414e-05
-2.55114e-05
-3.77452e-05
-5.12299e-05
-6.44607e-05
-7.53015e-05
-8.10606e-05
-7.86591e-05
-6.4886e-05
-3.6717e-05
8.33982e-06
7.19122e-05
0.000154493
0.000255273
0.000372092
0.000501537
0.000639153
0.000779761
0.00091782
0.0010478
0.0011645
0.00126332
0.00134042
0.00139279
0.00141827
0.00141551
0.00138399
0.00132402
0.00123684
0.00112471
0.000991053
0.000840496
0.000678857
0.000512923
0.000350052
0.000197608
6.22698e-05
-5.06795e-05
-0.000137962
-0.000198693
-0.000234462
-0.000249063
-0.000247933
-0.00023737
-0.000223698
-0.000212509
-0.000208085
-0.000212999
-0.000220441
-0.000231521
-0.000245835
-0.000262446
-0.000279162
-0.000291999
-0.000294481
-0.00027696
-0.000226103
-0.000124795
4.72467e-05
0.000311863
0.000689592
0.00119546
0.00183352
0.00259052
0.0034293
0.00428303
0.00505103
0.00559693
0.00574842
0.00531506
0.00409397
0.00189001
-0.00146172
-0.0060712
-0.0119689
-0.0190836
-0.0272266
-0.0360874
-0.0452085
-0.054029
-0.0618893
-0.068061
-0.071786
-0.0723162
-0.0689549
-0.0611054
-0.048298
-0.0302201
-0.00673344
0.0221162
0.0561025
0.0948327
0.137771
0.184265
0.233577
0.284918
0.337484
0.390486
0.443179
0.494878
0.544983
0.592986
0.638476
0.681142
0.720768
0.757227
0.790474
0.820531
0.847476
0.87144
0.892586
0.911097
0.927184
0.941055
0.952925
0.963002
0.971485
0.97857
0.984432
0.989233
0.993122
0.996227
0.998673
1.00055
1.002
1.00295
1.00388
1.00381
1.00518
1.00385
8.11862e-11
2.86109e-11
1.11928e-11
1.94644e-13
-6.30755e-12
-9.55433e-12
-1.09445e-11
-1.12683e-11
-1.10094e-11
-1.04483e-11
-9.75412e-12
-9.02853e-12
-8.32828e-12
-7.67374e-12
-7.06891e-12
-6.5141e-12
-6.00789e-12
-5.53868e-12
-5.06734e-12
-4.52774e-12
-3.91287e-12
-3.5203e-12
-4.29399e-12
-7.81902e-12
-1.49785e-11
-2.20519e-11
-1.40964e-11
4.10884e-11
1.89015e-10
4.58552e-10
7.88369e-10
9.04406e-10
1.77545e-10
-2.45056e-09
-8.31498e-09
-1.84399e-08
-3.23297e-08
-4.60992e-08
-5.02117e-08
-2.75401e-08
4.70442e-08
2.03994e-07
4.71765e-07
8.63871e-07
1.36059e-06
1.8874e-06
2.29442e-06
2.3428e-06
1.70524e-06
-1.31478e-08
-3.2293e-06
-8.31225e-06
-1.54942e-05
-2.47734e-05
-3.58252e-05
-4.79391e-05
-5.99985e-05
-7.05171e-05
-7.77373e-05
-7.97856e-05
-7.48722e-05
-6.15105e-05
-3.873e-05
-6.25195e-06
3.5396e-05
8.48432e-05
0.000139926
0.00019782
0.000255229
0.000308631
0.000354528
0.000389697
0.000411413
0.00041764
0.000407182
0.000379786
0.000336216
0.000278282
0.000208815
0.000131579
5.11035e-05
-2.75913e-05
-9.93687e-05
-0.000159445
-0.000203907
-0.000230209
-0.000237561
-0.000227121
-0.000201917
-0.000166452
-0.000126049
-8.60138e-05
-5.08232e-05
-2.35135e-05
-5.44336e-06
3.63109e-06
5.86871e-06
5.38466e-06
2.31657e-06
-4.62207e-06
-1.6883e-05
-3.62262e-05
-6.42194e-05
-0.000101432
-0.000146155
-0.000192924
-0.00023095
-0.00024284
-0.000204188
-8.45726e-05
0.000149481
0.000529285
0.00107651
0.00179398
0.00265556
0.00359688
0.00450862
0.0052375
0.00557511
0.0052882
0.00412732
0.00185317
-0.00173211
-0.00675151
-0.0132207
-0.0210207
-0.0298779
-0.0393554
-0.0488631
-0.0576738
-0.0649582
-0.069829
-0.0713939
-0.0688094
-0.0613371
-0.0483903
-0.0295721
-0.0047009
0.0261788
0.062799
0.104685
0.151185
0.201507
0.254761
0.310003
0.366278
0.422661
0.478292
0.532402
0.584327
0.633532
0.679601
0.722242
0.761281
0.796648
0.828368
0.856532
0.881302
0.902882
0.921507
0.937431
0.950918
0.962231
0.971624
0.97934
0.985606
0.99063
0.9946
0.997686
1.00003
1.00177
1.00301
1.00385
1.00436
1.00465
1.00467
1.00479
1.00414
1.00492
1.00333
-3.30259e-10
-1.23316e-10
-5.20715e-11
-6.86626e-12
2.12544e-11
3.62318e-11
4.33608e-11
4.57819e-11
4.55044e-11
4.37299e-11
4.12021e-11
3.83841e-11
3.55729e-11
3.29006e-11
3.04046e-11
2.80865e-11
2.59351e-11
2.39381e-11
2.20938e-11
2.0427e-11
1.89911e-11
1.78041e-11
1.6652e-11
1.47798e-11
1.07539e-11
3.22583e-12
-6.35668e-12
-8.48983e-12
2.06902e-11
1.20963e-10
3.33419e-10
6.54597e-10
9.48436e-10
8.24245e-10
-4.72627e-10
-4.05701e-09
-1.11353e-08
-2.23033e-08
-3.63026e-08
-4.82954e-08
-4.80056e-08
-1.8432e-08
6.38311e-08
2.25481e-07
4.89599e-07
8.64583e-07
1.32962e-06
1.81874e-06
2.20697e-06
2.30269e-06
1.85095e-06
5.50875e-07
-1.91146e-06
-5.81657e-06
-1.13567e-05
-1.85811e-05
-2.73514e-05
-3.73167e-05
-4.79185e-05
-5.84277e-05
-6.80138e-05
-7.58401e-05
-8.11731e-05
-8.34906e-05
-8.25748e-05