/*--------------------------------*- C++ -*----------------------------------*\
| =========                 |                                                 |
| \\      /  F ield         | OpenFOAM: The Open Source CFD Toolbox           |
|  \\    /   O peration     | Version:  4.1                                   |
|   \\  /    A nd           | Web:      www.OpenFOAM.org                      |
|    \\/     M anipulation  |                                                 |
\*---------------------------------------------------------------------------*/
FoamFile
{
    version     2.0;
    format      ascii;
    class       volScalarField;
    location    "0.03";
    object      T;
}
// * * * * * * * * * * * * * * * * * * * * * * * * * * * * * * * * * * * * * //

dimensions      [0 0 0 1 0 0 0];

internalField   nonuniform List<scalar> 
12225
(
0.625082
0.501659
0.482429
0.479445
0.478893
0.478746
0.478693
0.478669
0.478655
0.478644
0.478631
0.478603
0.478533
0.478358
0.477918
0.476829
0.474106
0.467094
0.617081
0.498208
0.480748
0.478495
0.478335
0.47841
0.478486
0.478541
0.478577
0.478599
0.478607
0.478593
0.478535
0.478371
0.477952
0.476918
0.474397
0.468282
0.621282
0.500687
0.482151
0.479347
0.478884
0.478769
0.478724
0.478699
0.478684
0.478671
0.478656
0.478627
0.478561
0.4784
0.478005
0.47706
0.474864
0.470007
0.621277
0.500416
0.481761
0.479003
0.478628
0.478587
0.478593
0.478605
0.478615
0.478621
0.478619
0.478602
0.478547
0.478404
0.478053
0.477231
0.475413
0.47171
0.621238
0.500487
0.481847
0.479071
0.47869
0.478643
0.47864
0.478643
0.478645
0.478645
0.478639
0.47862
0.478568
0.478438
0.478132
0.477445
0.476002
0.473269
0.621177
0.50051
0.481888
0.479083
0.478687
0.478637
0.478634
0.478637
0.47864
0.478641
0.478637
0.478621
0.478576
0.478465
0.47821
0.47766
0.476559
0.474596
0.621178
0.500547
0.481941
0.479115
0.478704
0.47865
0.478644
0.478646
0.478648
0.478648
0.478644
0.47863
0.478591
0.4785
0.478295
0.477871
0.477062
0.475685
0.621179
0.500558
0.481969
0.479137
0.478717
0.478659
0.478652
0.478652
0.478653
0.478653
0.478649
0.478637
0.478604
0.478528
0.478364
0.478034
0.477424
0.476417
0.621177
0.500563
0.481988
0.479156
0.478731
0.478669
0.47866
0.478659
0.478659
0.478659
0.478654
0.478644
0.478616
0.478554
0.478422
0.478164
0.477701
0.476955
0.621174
0.500565
0.482002
0.479173
0.478745
0.47868
0.478669
0.478667
0.478666
0.478665
0.478661
0.478652
0.47863
0.47858
0.478479
0.478287
0.477951
0.47742
0.621171
0.500564
0.482012
0.479188
0.478759
0.478692
0.47868
0.478676
0.478675
0.478673
0.478668
0.478661
0.478644
0.478607
0.478533
0.478396
0.478165
0.477805
0.621167
0.500561
0.482017
0.479198
0.478771
0.478704
0.47869
0.478686
0.478683
0.478681
0.478677
0.478671
0.478658
0.478632
0.478581
0.47849
0.478338
0.478108
0.621164
0.500557
0.482019
0.479205
0.47878
0.478714
0.4787
0.478696
0.478692
0.47869
0.478687
0.478681
0.478672
0.478654
0.478621
0.478564
0.478471
0.478333
0.621161
0.500553
0.482019
0.479209
0.478786
0.47872
0.478708
0.478704
0.478701
0.478698
0.478695
0.478691
0.478685
0.478673
0.478653
0.47862
0.478567
0.47849
0.621158
0.500549
0.482017
0.47921
0.478789
0.478725
0.478713
0.47871
0.478708
0.478705
0.478703
0.4787
0.478696
0.478689
0.478677
0.478659
0.478631
0.478592
0.621156
0.500546
0.482015
0.479209
0.47879
0.478728
0.478717
0.478714
0.478712
0.47871
0.478709
0.478707
0.478704
0.4787
0.478694
0.478684
0.478671
0.478652
0.621154
0.500544
0.482013
0.479208
0.47879
0.478728
0.478718
0.478716
0.478714
0.478714
0.478712
0.478711
0.478709
0.478707
0.478704
0.478699
0.478692
0.478684
0.621154
0.500543
0.482012
0.479208
0.47879
0.478728
0.478718
0.478715
0.478714
0.478714
0.478713
0.478712
0.478711
0.478709
0.478706
0.478704
0.478701
0.478698
0.621154
0.500543
0.482012
0.479207
0.478789
0.478728
0.478718
0.478714
0.478712
0.478712
0.47871
0.478709
0.478708
0.478707
0.478706
0.478704
0.478701
0.478701
0.621154
0.500544
0.482012
0.479207
0.478788
0.478725
0.478715
0.478711
0.478709
0.478707
0.478706
0.478705
0.478704
0.478703
0.478702
0.478701
0.478699
0.4787
0.621154
0.500545
0.482014
0.479206
0.478784
0.47872
0.478709
0.478705
0.478703
0.478701
0.478699
0.478698
0.478697
0.478696
0.478696
0.478695
0.478694
0.478694
0.621154
0.500547
0.482015
0.479204
0.47878
0.478714
0.478702
0.478698
0.478696
0.478694
0.478693
0.478692
0.478692
0.478691
0.478691
0.47869
0.478689
0.47869
0.621152
0.500551
0.482014
0.479195
0.478767
0.478701
0.478689
0.478685
0.478684
0.478683
0.478683
0.478682
0.478682
0.478683
0.478682
0.478682
0.478682
0.478683
0.621147
0.500559
0.482014
0.479187
0.478759
0.478694
0.478684
0.478681
0.478681
0.47868
0.47868
0.47868
0.478681
0.478681
0.478681
0.478681
0.478681
0.478682
0.621134
0.500551
0.481983
0.479149
0.478725
0.478665
0.478657
0.478657
0.478658
0.47866
0.478662
0.478664
0.478665
0.478667
0.478669
0.47867
0.478671
0.478672
0.621195
0.500594
0.48198
0.479154
0.478749
0.478696
0.478689
0.478687
0.478686
0.478685
0.478684
0.478682
0.478681
0.47868
0.47868
0.47868
0.478679
0.47868
0.621276
0.500532
0.481808
0.478971
0.478582
0.478548
0.478561
0.47858
0.478597
0.478611
0.478622
0.478631
0.478639
0.478645
0.478651
0.478655
0.478659
0.478661
0.621626
0.501078
0.482445
0.479563
0.479064
0.478923
0.47885
0.478804
0.478771
0.478747
0.47873
0.478716
0.478707
0.4787
0.478695
0.478691
0.47869
0.478684
0.617042
0.497852
0.480426
0.478232
0.478138
0.478261
0.478372
0.478454
0.478512
0.478553
0.478582
0.478604
0.47862
0.478632
0.478642
0.47865
0.478659
0.478657
0.625111
0.502056
0.482622
0.479575
0.479005
0.478839
0.47877
0.478733
0.478711
0.478697
0.478687
0.47868
0.478676
0.478673
0.478671
0.478671
0.478674
0.478662
0.143718
0.143688
0.143618
0.143515
0.143382
0.143216
0.143018
0.142789
0.142528
0.142237
0.141916
0.141567
0.141189
0.140784
0.140352
0.139895
0.139414
0.138909
0.138383
0.137836
0.13727
0.136686
0.136086
0.13547
0.13484
0.134199
0.133546
0.132885
0.132215
0.131539
0.130858
0.130174
0.129487
0.1288
0.128114
0.12743
0.12675
0.126074
0.125404
0.124742
0.124089
0.123445
0.122812
0.12219
0.121582
0.120987
0.120407
0.119843
0.119294
0.118763
0.118249
0.117753
0.117276
0.116817
0.116378
0.115959
0.115559
0.11518
0.11482
0.11448
0.114161
0.113861
0.113581
0.113321
0.11308
0.112859
0.112656
0.112471
0.112305
0.112156
0.112024
0.111909
0.11181
0.111726
0.111657
0.111602
0.111561
0.111532
0.111516
0.111511
0.111517
0.111532
0.111556
0.111587
0.111626
0.111671
0.11172
0.111773
0.111828
0.111885
0.111943
0.111999
0.112054
0.112105
0.112152
0.112193
0.112227
0.112253
0.112271
0.112278
0.112274
0.112258
0.112228
0.112185
0.112127
0.112053
0.111962
0.111855
0.111729
0.111584
0.111419
0.111234
0.111028
0.1108
0.110549
0.110274
0.109976
0.109652
0.109302
0.108926
0.108522
0.108091
0.10763
0.107139
0.106618
0.106065
0.105481
0.104863
0.104212
0.103526
0.102805
0.102048
0.101254
0.100422
0.0995529
0.0986447
0.0976969
0.0967091
0.0956807
0.0946111
0.0934998
0.0923464
0.0911505
0.0899118
0.0886301
0.0873052
0.085937
0.0845255
0.083071
0.0815735
0.0800335
0.0784514
0.0768279
0.0751636
0.0734597
0.0717171
0.0699372
0.0681214
0.0662713
0.0643891
0.0624763
0.0605357
0.0585704
0.0565804
0.0545709
0.0525452
0.0505054
0.048457
0.046404
0.0443505
0.0423004
0.040258
0.0382275
0.0362134
0.0342207
0.032255
0.0303254
0.0284412
0.0266397
0.0249131
0.144627
0.144592
0.144525
0.144425
0.144292
0.144126
0.143928
0.143698
0.143436
0.143142
0.142818
0.142465
0.142083
0.141674
0.141239
0.140778
0.140293
0.139786
0.139256
0.138707
0.138138
0.137552
0.136949
0.136332
0.135701
0.135058
0.134404
0.133741
0.13307
0.132394
0.131712
0.131027
0.13034
0.129652
0.128965
0.128281
0.1276
0.126924
0.126254
0.125591
0.124937
0.124293
0.123659
0.123038
0.122429
0.121834
0.121253
0.120688
0.120139
0.119607
0.119093
0.118596
0.118118
0.117659
0.11722
0.1168
0.116399
0.116019
0.115659
0.115319
0.114999
0.114699
0.114419
0.114158
0.113917
0.113695
0.113492
0.113308
0.113141
0.112993
0.112861
0.112746
0.112647
0.112564
0.112496
0.112442
0.112401
0.112374
0.112359
0.112356
0.112363
0.11238
0.112406
0.11244
0.112481
0.112528
0.112581
0.112637
0.112696
0.112757
0.112818
0.112879
0.112938
0.112994
0.113045
0.113091
0.113131
0.113163
0.113186
0.113198
0.1132
0.11319
0.113167
0.113129
0.113077
0.11301
0.112925
0.112824
0.112704
0.112565
0.112407
0.112228
0.112028
0.111806
0.111561
0.111293
0.111
0.110682
0.110338
0.109968
0.109569
0.109143
0.108687
0.108202
0.107685
0.107137
0.106557
0.105944
0.105296
0.104614
0.103897
0.103143
0.102352
0.101523
0.100656
0.0997495
0.0988033
0.0978166
0.0967889
0.0957197
0.0946083
0.0934544
0.0922575
0.0910174
0.0897337
0.0884062
0.087035
0.0856199
0.0841611
0.0826588
0.0811132
0.079525
0.0778946
0.0762228
0.0745105
0.0727588
0.0709689
0.0691424
0.0672806
0.0653859
0.0634595
0.0615046
0.0595239
0.0575185
0.0554932
0.0534515
0.0513954
0.0493294
0.0472576
0.045184
0.0431127
0.0410478
0.0389939
0.0369552
0.0349368
0.0329444
0.0309868
0.0290735
0.0272362
0.02548
0.146454
0.146405
0.146328
0.146221
0.14608
0.145906
0.145698
0.145458
0.145187
0.144884
0.144552
0.14419
0.143801
0.143385
0.142943
0.142476
0.141986
0.141474
0.14094
0.140386
0.139814
0.139225
0.13862
0.138
0.137367
0.136722
0.136067
0.135403
0.134731
0.134053
0.133371
0.132685
0.131998
0.13131
0.130623
0.129938
0.129256
0.12858
0.127909
0.127246
0.126592
0.125947
0.125313
0.12469
0.124081
0.123485
0.122903
0.122338
0.121788
0.121255
0.12074
0.120242
0.119763
0.119304
0.118863
0.118442
0.118041
0.11766
0.117299
0.116959
0.116638
0.116338
0.116057
0.115797
0.115555
0.115334
0.115131
0.114947
0.114781
0.114633
0.114502
0.114388
0.114291
0.11421
0.114143
0.114092
0.114054
0.11403
0.114018
0.114019
0.11403
0.114052
0.114083
0.114122
0.11417
0.114224
0.114283
0.114347
0.114414
0.114484
0.114555
0.114626
0.114695
0.114762
0.114825
0.114883
0.114935
0.114979
0.115015
0.115041
0.115056
0.11506
0.11505
0.115027
0.114989
0.114936
0.114866
0.114779
0.114673
0.114549
0.114405
0.114241
0.114055
0.113847
0.113617
0.113362
0.113083
0.112779
0.112449
0.112091
0.111706
0.111292
0.110849
0.110375
0.10987
0.109334
0.108764
0.108161
0.107523
0.10685
0.106141
0.105395
0.104611
0.103789
0.102927
0.102026
0.101084
0.100101
0.0990758
0.0980082
0.0968975
0.0957433
0.0945451
0.0933026
0.0920154
0.0906833
0.0893062
0.0878841
0.0864169
0.0849049
0.0833483
0.0817476
0.0801033
0.078416
0.0766866
0.0749163
0.073106
0.0712573
0.0693717
0.0674512
0.0654976
0.0635132
0.061501
0.0594626
0.0574024
0.0553237
0.0532289
0.0511224
0.0490079
0.0468896
0.0447717
0.0426583
0.0405538
0.0384628
0.0363901
0.0343413
0.0323249
0.0303499
0.0284437
0.0266148
0.149188
0.149126
0.149039
0.148922
0.14877
0.148584
0.148364
0.148112
0.147828
0.147514
0.14717
0.146799
0.146399
0.145974
0.145523
0.145048
0.14455
0.144031
0.143491
0.142931
0.142354
0.14176
0.14115
0.140527
0.13989
0.139242
0.138585
0.137918
0.137244
0.136565
0.13588
0.135193
0.134504
0.133814
0.133126
0.13244
0.131757
0.131079
0.130407
0.129743
0.129087
0.128441
0.127805
0.127181
0.12657
0.125972
0.12539
0.124822
0.124271
0.123736
0.123219
0.12272
0.122239
0.121778
0.121336
0.120913
0.120511
0.120128
0.119766
0.119424
0.119103
0.118801
0.11852
0.118259
0.118017
0.117795
0.117592
0.117408
0.117243
0.117096
0.116966
0.116854
0.116759
0.116679
0.116616
0.116567
0.116533
0.116513
0.116506
0.116512
0.116529
0.116557
0.116596
0.116643
0.116699
0.116763
0.116832
0.116907
0.116987
0.117069
0.117153
0.117238
0.117323
0.117405
0.117485
0.11756
0.11763
0.117692
0.117747
0.117792
0.117827
0.11785
0.117861
0.117858
0.117841
0.117809
0.11776
0.117693
0.117609
0.117506
0.117384
0.11724
0.117076
0.116889
0.116679
0.116445
0.116187
0.115902
0.115592
0.115254
0.114888
0.114493
0.114067
0.113611
0.113124
0.112603
0.112049
0.111461
0.110838
0.110178
0.109482
0.108748
0.107975
0.107162
0.10631
0.105416
0.104481
0.103503
0.102482
0.101417
0.100307
0.099153
0.0979531
0.0967073
0.0954153
0.0940767
0.0926913
0.091259
0.0897798
0.0882539
0.0866813
0.0850624
0.0833978
0.081688
0.0799338
0.0781361
0.0762961
0.0744152
0.0724947
0.0705365
0.0685425
0.066515
0.0644566
0.0623695
0.0602573
0.0581234
0.0559708
0.0538034
0.0516252
0.0494403
0.0472528
0.0450671
0.0428874
0.0407184
0.0385649
0.0364324
0.0343289
0.0322628
0.0302583
0.028323
0.152837
0.152764
0.152667
0.152539
0.152376
0.152176
0.151943
0.151677
0.15138
0.151053
0.150696
0.150311
0.1499
0.149462
0.149
0.148515
0.148007
0.147479
0.14693
0.146363
0.145778
0.145178
0.144562
0.143933
0.143292
0.142639
0.141977
0.141307
0.140629
0.139946
0.139259
0.138569
0.137877
0.137185
0.136494
0.135805
0.13512
0.13444
0.133766
0.133099
0.132441
0.131792
0.131154
0.130528
0.129914
0.129314
0.128729
0.128159
0.127605
0.127068
0.126548
0.126046
0.125563
0.125099
0.124654
0.12423
0.123825
0.12344
0.123076
0.122732
0.122409
0.122106
0.121823
0.121561
0.121318
0.121096
0.120892
0.120709
0.120543
0.120397
0.120268
0.120158
0.120064
0.119987
0.119927
0.119882
0.119852
0.119836
0.119835
0.119846
0.11987
0.119906
0.119953
0.12001
0.120077
0.120151
0.120234
0.120322
0.120416
0.120514
0.120615
0.120717
0.12082
0.120922
0.121022
0.121118
0.12121
0.121295
0.121373
0.121442
0.121502
0.12155
0.121586
0.121609
0.121617
0.121611
0.121588
0.121548
0.12149
0.121414
0.121318
0.121201
0.121063
0.120902
0.120718
0.12051
0.120278
0.120019
0.119733
0.11942
0.119078
0.118706
0.118304
0.11787
0.117404
0.116905
0.116371
0.115802
0.115197
0.114555
0.113874
0.113155
0.112396
0.111596
0.110755
0.109871
0.108944
0.107973
0.106957
0.105896
0.104788
0.103634
0.102432
0.101182
0.0998843
0.0985376
0.0971418
0.0956968
0.0942025
0.0926589
0.0910661
0.0894243
0.0877339
0.0859953
0.0842095
0.0823772
0.0804992
0.078577
0.0766118
0.0746054
0.0725596
0.0704766
0.0683589
0.0662089
0.0640298
0.0618249
0.0595975
0.0573515
0.0550908
0.0528194
0.0505417
0.0482619
0.0459845
0.0437139
0.0414552
0.0392136
0.0369968
0.0348126
0.0326832
0.030613
0.157423
0.157341
0.157234
0.157094
0.156918
0.156705
0.156458
0.156177
0.155865
0.155522
0.15515
0.154751
0.154325
0.153874
0.153399
0.152901
0.152382
0.151842
0.151283
0.150706
0.150112
0.149503
0.148879
0.148243
0.147594
0.146935
0.146267
0.145591
0.144909
0.144221
0.143529
0.142835
0.142139
0.141443
0.140748
0.140055
0.139367
0.138683
0.138005
0.137335
0.136673
0.136021
0.135379
0.134749
0.134132
0.133528
0.132939
0.132365
0.131808
0.131267
0.130743
0.130238
0.129751
0.129284
0.128836
0.128408
0.128
0.127612
0.127245
0.126898
0.126572
0.126266
0.125982
0.125717
0.125473
0.125249
0.125045
0.12486
0.124695
0.124548
0.12442
0.12431
0.124218
0.124143
0.124085
0.124044
0.124018
0.124007
0.124011
0.124029
0.12406
0.124104
0.12416
0.124227
0.124305
0.124392
0.124487
0.124591
0.1247
0.124815
0.124935
0.125057
0.125181
0.125305
0.125428
0.125548
0.125664
0.125775
0.12588
0.125976
0.126063
0.12614
0.126205
0.126257
0.126295
0.126318
0.126325
0.126316
0.126288
0.126242
0.126177
0.126091
0.125983
0.125853
0.125699
0.125522
0.125319
0.125089
0.124833
0.124548
0.124234
0.12389
0.123515
0.123107
0.122666
0.122192
0.121681
0.121135
0.120552
0.11993
0.119269
0.118567
0.117825
0.11704
0.116212
0.115341
0.114424
0.113461
0.112452
0.111395
0.11029
0.109136
0.107933
0.106679
0.105374
0.104018
0.102611
0.101151
0.0996394
0.0980755
0.096459
0.0947905
0.0930702
0.0912981
0.0894751
0.0876018
0.0856791
0.0837081
0.0816901
0.0796266
0.0775193
0.0753704
0.0731822
0.0709571
0.0686982
0.0664085
0.0640916
0.0617512
0.0593912
0.0570158
0.0546291
0.0522356
0.0498397
0.047446
0.0450595
0.0426854
0.0403313
0.0380042
0.0357251
0.0334948
0.162973
0.162884
0.162766
0.162614
0.162424
0.162197
0.161935
0.161638
0.16131
0.16095
0.160562
0.160147
0.159705
0.159238
0.158748
0.158236
0.157702
0.157149
0.156577
0.155988
0.155383
0.154763
0.154129
0.153483
0.152826
0.152159
0.151483
0.150799
0.150109
0.149415
0.148716
0.148016
0.147314
0.146612
0.145912
0.145214
0.14452
0.143831
0.143148
0.142472
0.141806
0.141148
0.140502
0.139867
0.139244
0.138636
0.138042
0.137463
0.1369
0.136355
0.135826
0.135316
0.134825
0.134352
0.1339
0.133467
0.133054
0.132662
0.132291
0.13194
0.13161
0.131301
0.131013
0.130746
0.130499
0.130272
0.130066
0.129879
0.129712
0.129565
0.129436
0.129326
0.129234
0.129161
0.129104
0.129065
0.129042
0.129035
0.129043
0.129066
0.129104
0.129156
0.12922
0.129297
0.129386
0.129485
0.129594
0.129712
0.129838
0.129971
0.130109
0.130251
0.130397
0.130544
0.130691
0.130836
0.130979
0.131117
0.13125
0.131375
0.131492
0.131598
0.131694
0.131777
0.131847
0.131902
0.131942
0.131965
0.131971
0.131958
0.131926
0.131873
0.131799
0.131702
0.131582
0.131437
0.131267
0.13107
0.130845
0.130592
0.130309
0.129996
0.12965
0.129272
0.128859
0.128412
0.127928
0.127407
0.126848
0.126249
0.12561
0.124929
0.124205
0.123438
0.122626
0.121768
0.120863
0.119911
0.118909
0.117858
0.116757
0.115604
0.114399
0.113142
0.111831
0.110465
0.109045
0.10757
0.10604
0.104454
0.102812
0.101114
0.0993606
0.0975516
0.0956874
0.0937688
0.0917962
0.0897709
0.0876937
0.0855662
0.0833899
0.0811668
0.0788989
0.0765888
0.0742393
0.0718534
0.0694345
0.0669863
0.0645126
0.0620177
0.0595057
0.0569811
0.0544483
0.0519121
0.0493774
0.0468496
0.0443361
0.0418434
0.039392
0.0369788
0.169527
0.169428
0.169299
0.169134
0.16893
0.168687
0.168408
0.168095
0.167749
0.167372
0.166966
0.166532
0.166073
0.165589
0.165081
0.164552
0.164003
0.163434
0.162847
0.162243
0.161624
0.160991
0.160344
0.159686
0.159017
0.158339
0.157653
0.156959
0.15626
0.155557
0.15485
0.154141
0.153431
0.152721
0.152013
0.151308
0.150607
0.149911
0.149221
0.148539
0.147865
0.147201
0.146548
0.145906
0.145278
0.144662
0.144062
0.143477
0.142907
0.142355
0.141821
0.141304
0.140807
0.140328
0.139869
0.13943
0.139012
0.138614
0.138237
0.137881
0.137546
0.137231
0.136938
0.136666
0.136414
0.136184
0.135973
0.135783
0.135613
0.135463
0.135332
0.13522
0.135127
0.135052
0.134996
0.134957
0.134935
0.13493
0.134941
0.134968
0.135011
0.135068
0.13514
0.135225
0.135322
0.135432
0.135554
0.135685
0.135826
0.135975
0.136131
0.136293
0.136459
0.136628
0.136798
0.136969
0.137138
0.137303
0.137463
0.137618
0.137764
0.137901
0.138027
0.138142
0.138244
0.138332
0.138405
0.138462
0.138502
0.138523
0.138525
0.138507
0.138467
0.138405
0.138319
0.138208
0.138072
0.13791
0.137719
0.137499
0.137249
0.136968
0.136654
0.136306
0.135924
0.135506
0.135051
0.134557
0.134024
0.133451
0.132835
0.132176
0.131474
0.130725
0.129931
0.129088
0.128197
0.127257
0.126265
0.125221
0.124125
0.122974
0.121769
0.120509
0.119192
0.117817
0.116385
0.114895
0.113345
0.111737
0.110068
0.10834
0.106552
0.104704
0.102797
0.10083
0.0988047
0.0967213
0.0945808
0.0923846
0.0901339
0.0878305
0.0854764
0.0830739
0.0806255
0.0781344
0.0756035
0.0730367
0.0704377
0.0678105
0.0651595
0.062489
0.0598035
0.057108
0.0544074
0.051707
0.0490146
0.046336
0.0436917
0.041075
0.177125
0.177017
0.176874
0.176695
0.176475
0.176216
0.175919
0.175587
0.175222
0.174826
0.1744
0.173946
0.173467
0.172963
0.172436
0.171887
0.171319
0.170732
0.170127
0.169506
0.16887
0.168221
0.167559
0.166886
0.166203
0.165511
0.164811
0.164105
0.163394
0.162679
0.16196
0.16124
0.16052
0.1598
0.159083
0.158368
0.157657
0.156952
0.156253
0.155562
0.15488
0.154207
0.153546
0.152896
0.152259
0.151635
0.151027
0.150433
0.149856
0.149296
0.148753
0.148228
0.147723
0.147236
0.14677
0.146323
0.145897
0.145491
0.145106
0.144743
0.1444
0.144079
0.143779
0.1435
0.143241
0.143004
0.142788
0.142592
0.142416
0.142261
0.142125
0.142009
0.141912
0.141833
0.141774
0.141733
0.141709
0.141703
0.141714
0.141742
0.141787
0.141847
0.141922
0.142012
0.142117
0.142234
0.142365
0.142507
0.14266
0.142822
0.142994
0.143172
0.143356
0.143545
0.143737
0.14393
0.144122
0.144312
0.144499
0.14468
0.144854
0.145019
0.145175
0.14532
0.145453
0.145572
0.145677
0.145767
0.145839
0.145894
0.145929
0.145945
0.145939
0.145911
0.14586
0.145784
0.145682
0.145553
0.145397
0.14521
0.144994
0.144745
0.144464
0.144148
0.143797
0.143409
0.142983
0.142518
0.142013
0.141465
0.140875
0.14024
0.139559
0.138832
0.138056
0.137231
0.136355
0.135428
0.134447
0.133412
0.132322
0.131176
0.129972
0.12871
0.127388
0.126006
0.124563
0.123058
0.121491
0.11986
0.118166
0.116408
0.114585
0.112698
0.110747
0.108731
0.106652
0.104509
0.102303
0.100036
0.0977077
0.0953205
0.0928761
0.0903764
0.0878238
0.0852211
0.0825714
0.0798781
0.0771448
0.0743757
0.0715748
0.0687466
0.0658957
0.0630268
0.0601453
0.0572565
0.0543682
0.0514859
0.0486306
0.0457918
0.185816
0.185696
0.18554
0.185344
0.185106
0.184828
0.184511
0.184159
0.183773
0.183354
0.182906
0.18243
0.181928
0.181402
0.180852
0.180281
0.179691
0.179082
0.178456
0.177814
0.177159
0.17649
0.175809
0.175118
0.174417
0.173708
0.172992
0.17227
0.171544
0.170814
0.170082
0.169348
0.168615
0.167882
0.167152
0.166425
0.165703
0.164986
0.164276
0.163574
0.162881
0.162198
0.161525
0.160865
0.160217
0.159584
0.158965
0.158361
0.157774
0.157203
0.156651
0.156116
0.1556
0.155104
0.154627
0.15417
0.153734
0.153319
0.152924
0.152551
0.152198
0.151867
0.151557
0.151268
0.151001
0.150754
0.150529
0.150324
0.15014
0.149975
0.149832
0.149707
0.149603
0.149518
0.149452
0.149404
0.149375
0.149364
0.149372
0.149396
0.149438
0.149497
0.149572
0.149663
0.149769
0.14989
0.150025
0.150173
0.150334
0.150505
0.150687
0.150878
0.151077
0.151281
0.151489
0.1517
0.151912
0.152123
0.152331
0.152535
0.152732
0.152923
0.153105
0.153276
0.153436
0.153584
0.153718
0.153836
0.153939
0.154024
0.154091
0.154138
0.154165
0.154169
0.15415
0.154106
0.154037
0.153942
0.153817
0.153664
0.15348
0.153263
0.153014
0.152729
0.152409
0.152051
0.151655
0.151218
0.15074
0.15022
0.149655
0.149044
0.148387
0.147681
0.146925
0.146119
0.145259
0.144347
0.143379
0.142354
0.141273
0.140132
0.138931
0.137669
0.136345
0.134957
0.133505
0.131987
0.130404
0.128753
0.127035
0.125248
0.123393
0.121469
0.119475
0.117411
0.115279
0.113077
0.110806
0.108467
0.106062
0.10359
0.101054
0.0984547
0.0957953
0.0930779
0.0903052
0.0874806
0.0846075
0.0816898
0.0787315
0.075737
0.0727109
0.0696581
0.0665838
0.0634936
0.0603954
0.0572945
0.0542126
0.0511354
0.195653
0.19552
0.195347
0.195132
0.194874
0.194575
0.194236
0.19386
0.193449
0.193006
0.192533
0.192031
0.191502
0.190949
0.190373
0.189776
0.18916
0.188525
0.187874
0.187208
0.186528
0.185836
0.185132
0.184419
0.183697
0.182967
0.182231
0.18149
0.180745
0.179997
0.179247
0.178497
0.177747
0.176999
0.176253
0.175512
0.174775
0.174044
0.17332
0.172605
0.171898
0.171202
0.170517
0.169844
0.169184
0.168537
0.167906
0.16729
0.16669
0.166107
0.165542
0.164995
0.164467
0.163958
0.163468
0.162999
0.16255
0.162122
0.161714
0.161328
0.160963
0.160619
0.160296
0.159994
0.159713
0.159454
0.159215
0.158998
0.158801
0.158624
0.158467
0.158331
0.158214
0.158117
0.15804
0.157982
0.157942
0.157921
0.157919
0.157935
0.157969
0.15802
0.158089
0.158175
0.158277
0.158395
0.158529
0.158677
0.158839
0.159014
0.159201
0.159398
0.159603
0.159817
0.160036
0.160258
0.160483
0.160709
0.160932
0.161153
0.161369
0.161578
0.16178
0.161972
0.162154
0.162325
0.162483
0.162626
0.162754
0.162866
0.162959
0.163034
0.163088
0.163121
0.163131
0.163117
0.163077
0.163011
0.162917
0.162794
0.162639
0.162453
0.162233
0.161978
0.161687
0.161358
0.16099
0.160582
0.160131
0.159636
0.159097
0.15851
0.157876
0.157192
0.156458
0.15567
0.154829
0.153932
0.152978
0.151966
0.150894
0.149761
0.148565
0.147306
0.145981
0.14459
0.143132
0.141605
0.140008
0.13834
0.136601
0.134789
0.132904
0.130945
0.128911
0.126803
0.12462
0.122362
0.120029
0.117621
0.11514
0.112585
0.109958
0.107261
0.104495
0.101663
0.0987664
0.0958089
0.0927935
0.089724
0.0866041
0.0834381
0.0802306
0.0769863
0.0737108
0.0704095
0.0670907
0.0637594
0.060438
0.0571087
0.206695
0.206547
0.206354
0.206118
0.205836
0.205512
0.205147
0.204743
0.204304
0.203832
0.203328
0.202795
0.202236
0.201651
0.201044
0.200416
0.199768
0.199103
0.198422
0.197726
0.197017
0.196297
0.195566
0.194826
0.194078
0.193324
0.192564
0.191799
0.191031
0.190262
0.189491
0.18872
0.187951
0.187183
0.186419
0.18566
0.184905
0.184158
0.183417
0.182685
0.181963
0.181251
0.18055
0.179862
0.179186
0.178525
0.177878
0.177247
0.176632
0.176034
0.175454
0.174892
0.174348
0.173824
0.173319
0.172833
0.172368
0.171924
0.1715
0.171097
0.170715
0.170354
0.170014
0.169695
0.169397
0.16912
0.168864
0.168628
0.168414
0.168219
0.168045
0.167891
0.167756
0.167642
0.167547
0.167471
0.167415
0.167378
0.16736
0.16736
0.167379
0.167416
0.167472
0.167545
0.167636
0.167744
0.167869
0.168009
0.168165
0.168335
0.168518
0.168713
0.168918
0.169132
0.169353
0.169579
0.169809
0.170041
0.170272
0.170501
0.170727
0.170947
0.171161
0.171368
0.171565
0.171751
0.171926
0.172087
0.172234
0.172366
0.17248
0.172576
0.172653
0.172709
0.172742
0.172753
0.172738
0.172697
0.172629
0.172531
0.172403
0.172243
0.17205
0.171822
0.171557
0.171255
0.170913
0.17053
0.170104
0.169635
0.16912
0.168557
0.167946
0.167284
0.16657
0.165802
0.164979
0.164099
0.16316
0.162161
0.161101
0.159978
0.15879
0.157535
0.156213
0.154822
0.153361
0.151827
0.150221
0.14854
0.146784
0.144951
0.14304
0.141051
0.138983
0.136834
0.134606
0.132296
0.129905
0.127433
0.12488
0.122246
0.119533
0.116741
0.113872
0.110928
0.10791
0.104821
0.101664
0.0984432
0.095161
0.0918218
0.0884301
0.0849907
0.0815089
0.0779904
0.0744436
0.0708733
0.0673028
0.0637103
0.219005
0.21884
0.218625
0.218362
0.218053
0.217699
0.217302
0.216865
0.216392
0.215884
0.215344
0.214774
0.214177
0.213554
0.212909
0.212243
0.211558
0.210856
0.210139
0.209408
0.208664
0.20791
0.207146
0.206374
0.205595
0.204811
0.204022
0.20323
0.202435
0.201639
0.200843
0.200048
0.199255
0.198465
0.197679
0.196898
0.196123
0.195355
0.194595
0.193844
0.193102
0.192372
0.191653
0.190946
0.190252
0.189573
0.188908
0.188259
0.187626
0.18701
0.186411
0.18583
0.185268
0.184724
0.1842
0.183695
0.18321
0.182745
0.1823
0.181876
0.181473
0.18109
0.180728
0.180386
0.180066
0.179765
0.179486
0.179227
0.178988
0.178769
0.178571
0.178392
0.178233
0.178094
0.177975
0.177875
0.177794
0.177733
0.17769
0.177667
0.177663
0.177678
0.177712
0.177764
0.177835
0.177923
0.17803
0.178153
0.178293
0.178448
0.178618
0.178801
0.178996
0.1792
0.179414
0.179634
0.179858
0.180086
0.180314
0.180542
0.180768
0.18099
0.181208
0.181418
0.181621
0.181815
0.181998
0.182169
0.182326
0.18247
0.182597
0.182707
0.182799
0.182871
0.182922
0.18295
0.182954
0.182932
0.182884
0.182807
0.1827
0.182561
0.18239
0.182184
0.181942
0.181663
0.181344
0.180984
0.180581
0.180134
0.179641
0.179101
0.178511
0.17787
0.177176
0.176428
0.175623
0.17476
0.173838
0.172854
0.171807
0.170695
0.169517
0.16827
0.166954
0.165566
0.164105
0.162569
0.160958
0.159268
0.1575
0.155651
0.153721
0.151707
0.14961
0.147428
0.145159
0.142804
0.140362
0.137832
0.135215
0.132509
0.129716
0.126836
0.123869
0.120818
0.117684
0.114469
0.111175
0.107806
0.104364
0.100854
0.0972787
0.0936439
0.0899546
0.0862164
0.0824378
0.0786233
0.0747972
0.0709337
0.232655
0.232468
0.232227
0.231933
0.23159
0.231199
0.230763
0.230286
0.229769
0.229217
0.228632
0.228016
0.227373
0.226704
0.226013
0.225301
0.22457
0.223824
0.223062
0.222288
0.221503
0.220708
0.219905
0.219095
0.21828
0.21746
0.216636
0.215811
0.214985
0.214158
0.213333
0.212509
0.211689
0.210872
0.21006
0.209254
0.208455
0.207663
0.20688
0.206106
0.205342
0.204589
0.203848
0.20312
0.202405
0.201704
0.201018
0.200347
0.199692
0.199053
0.198432
0.197829
0.197243
0.196676
0.196127
0.195598
0.195088
0.194598
0.194127
0.193677
0.193246
0.192836
0.192445
0.192075
0.191725
0.191395
0.191085
0.190795
0.190525
0.190275
0.190044
0.189833
0.189642
0.18947
0.189317
0.189184
0.18907
0.188976
0.1889
0.188845
0.188808
0.188791
0.188793
0.188814
0.188854
0.188913
0.18899
0.189086
0.189199
0.189328
0.189474
0.189633
0.189806
0.18999
0.190184
0.190386
0.190593
0.190805
0.191019
0.191235
0.191449
0.191662
0.191872
0.192076
0.192274
0.192464
0.192645
0.192816
0.192975
0.193121
0.193252
0.193367
0.193465
0.193545
0.193604
0.193642
0.193657
0.193648
0.193612
0.193549
0.193457
0.193335
0.19318
0.192991
0.192767
0.192505
0.192205
0.191864
0.19148
0.191053
0.19058
0.190059
0.189488
0.188867
0.188192
0.187462
0.186676
0.18583
0.184925
0.183956
0.182924
0.181826
0.180659
0.179423
0.178115
0.176734
0.175277
0.173744
0.172132
0.170439
0.168664
0.166805
0.164861
0.16283
0.160711
0.158502
0.156202
0.15381
0.151324
0.148745
0.146071
0.143302
0.140437
0.137478
0.134423
0.131274
0.128032
0.124698
0.121275
0.117764
0.114169
0.110492
0.106739
0.102912
0.0990175
0.0950608
0.0910502
0.0869902
0.0829055
0.0787666
0.24772
0.247509
0.247235
0.246904
0.246518
0.246081
0.245596
0.245066
0.244495
0.243887
0.243245
0.242571
0.24187
0.241143
0.240394
0.239626
0.23884
0.238039
0.237224
0.236399
0.235563
0.23472
0.23387
0.233016
0.232157
0.231295
0.230432
0.229568
0.228704
0.227842
0.226982
0.226125
0.225272
0.224425
0.223583
0.222748
0.22192
0.2211
0.22029
0.219489
0.218699
0.217921
0.217154
0.2164
0.215659
0.214933
0.214221
0.213524
0.212843
0.212177
0.211529
0.210898
0.210284
0.209688
0.20911
0.20855
0.208009
0.207487
0.206984
0.2065
0.206035
0.20559
0.205164
0.204757
0.20437
0.204002
0.203654
0.203325
0.203015
0.202724
0.202452
0.2022
0.201967
0.201752
0.201557
0.201381
0.201224
0.201086
0.200968
0.200868
0.200789
0.200728
0.200687
0.200666
0.200665
0.200682
0.200719
0.200775
0.200849
0.200941
0.201049
0.201172
0.20131
0.201461
0.201622
0.201792
0.20197
0.202153
0.20234
0.20253
0.202722
0.202913
0.203102
0.203288
0.203469
0.203644
0.203812
0.203972
0.204121
0.204258
0.204383
0.204493
0.204588
0.204666
0.204725
0.204764
0.204781
0.204775
0.204745
0.204688
0.204603
0.204489
0.204344
0.204166
0.203953
0.203704
0.203417
0.203091
0.202722
0.20231
0.201853
0.201348
0.200795
0.20019
0.199533
0.19882
0.198051
0.197222
0.196333
0.195381
0.194364
0.193281
0.192128
0.190905
0.189609
0.188237
0.186789
0.185262
0.183654
0.181964
0.180188
0.178326
0.176375
0.174334
0.172201
0.169973
0.16765
0.16523
0.162711
0.160092
0.157372
0.15455
0.151625
0.148596
0.145464
0.142228
0.138889
0.135447
0.131904
0.128262
0.124523
0.12069
0.116765
0.112754
0.10866
0.10449
0.100251
0.0959475
0.0916049
0.0871897