/*--------------------------------*- C++ -*----------------------------------*\
| =========                 |                                                 |
| \\      /  F ield         | OpenFOAM: The Open Source CFD Toolbox           |
|  \\    /   O peration     | Version:  4.1                                   |
|   \\  /    A nd           | Web:      www.OpenFOAM.org                      |
|    \\/     M anipulation  |                                                 |
\*---------------------------------------------------------------------------*/
FoamFile
{
    version     2.0;
    format      ascii;
    class       volScalarField;
    location    "0.075";
    object      T;
}
// * * * * * * * * * * * * * * * * * * * * * * * * * * * * * * * * * * * * * //

dimensions      [0 0 0 1 0 0 0];

internalField   nonuniform List<scalar> 
12225
(
1.11552
1.23317
1.29917
1.34126
1.36974
1.38851
1.40119
1.41004
1.41642
1.42116
1.42479
1.42763
1.4299
1.43177
1.4333
1.43469
1.43581
1.43518
0.860947
0.707839
0.632408
0.594821
0.576427
0.569644
0.569414
0.572758
0.577971
0.584077
0.590513
0.596954
0.603214
0.609181
0.61481
0.619994
0.624958
0.628865
1.03458
1.08006
1.10414
1.11423
1.11556
1.11189
1.10559
1.09802
1.08996
1.08185
1.07398
1.06647
1.05942
1.05284
1.04677
1.04114
1.0362
1.0315
1.00165
0.998855
0.992981
0.988432
0.986044
0.98539
0.98593
0.9872
0.988859
0.990683
0.992533
0.994323
0.995998
0.997539
0.998939
1.00018
1.0013
1.00234
1.00023
1.00039
1.00026
1.00043
1.00067
1.0008
1.00084
1.0008
1.00072
1.00062
1.00051
1.00042
1.00033
1.00027
1.00023
1.00019
1.00021
1.00021
0.999584
0.999244
0.998899
0.998714
0.99862
0.998535
0.998453
0.99839
0.998342
0.998302
0.998271
0.998244
0.99822
0.998204
0.998189
0.998174
0.998175
0.998153
0.999929
1.00011
1.00016
1.00019
1.00023
1.00025
1.00026
1.00026
1.00026
1.00026
1.00026
1.00025
1.00024
1.00023
1.00022
1.00021
1.00021
1.00019
0.999971
1.00007
1.00006
1.00002
1.00001
1.00001
1.00001
1
1
1
1
1.00001
1.00002
1.00002
1.00002
1.00003
1.00003
1.00003
0.999979
1.00004
1.00003
1.00002
1.00002
1.00002
1.00002
1.00002
1.00002
1.00003
1.00003
1.00003
1.00003
1.00003
1.00003
1.00003
1.00003
1.00003
0.999978
1.00002
1.00001
0.999998
0.999998
1
0.999999
0.999997
0.999996
0.999997
0.999995
0.999996
1
0.999999
0.999995
1
0.999995
0.999997
0.999985
1.00001
1.00001
1
1
0.999997
0.999997
0.999997
1
1
1
0.999998
0.999997
1
1
1
0.999997
1
0.999988
1.00001
1.00001
0.999999
0.999997
0.999999
0.999998
0.999999
0.999998
0.999996
0.999996
0.999997
0.999999
0.999999
1
1
0.999996
1
0.999989
1.00001
1.00001
1
0.999999
0.999999
1
1
0.999999
0.999998
1
0.999998
0.999999
1
0.999999
1
0.999993
0.999997
0.999991
1
1.00001
1.00001
1
1
0.999997
0.999998
0.999999
0.999998
0.999996
0.999998
0.999997
0.999997
0.999997
0.999997
0.999994
1
0.999993
1
1.00001
1.00001
1
1
0.999998
0.999999
0.999999
0.999999
1
0.999999
0.999999
1
0.999995
0.999998
0.999992
0.999998
0.999994
1
1.00001
1
1
1
1
0.999999
0.999999
0.999997
0.999997
1
1
1
0.999999
0.999998
0.999993
0.999999
0.999993
1
1
1
1
1
1
1
0.999999
1
1
0.999999
0.999998
0.999999
1
1
0.999997
0.999999
0.999995
1
1
1.00001
1.00001
1.00001
1
1
1
1
1
1
1.00001
1.00001
1
1
0.999997
1
0.999995
1
1
1
1
1
1.00001
1
0.999999
1
1
1
0.999997
0.999995
0.999999
0.999997
0.999991
0.999995
0.999992
1
1
1
1
1
1.00001
1.00001
1.00001
1
1.00001
1.00001
1.00001
1.00001
1.00001
1.00001
1.00001
1.00002
0.999991
0.999999
1.00001
1
0.999996
0.999991
0.999991
0.999988
0.999986
0.999985
0.999981
0.999979
0.999975
0.999972
0.999972
0.999972
0.999964
0.999966
0.999988
1
1.00001
1.00001
1.00002
1.00002
1.00003
1.00004
1.00004
1.00005
1.00006
1.00006
1.00007
1.00007
1.00008
1.00008
1.00008
1.00009
0.999982
1
1
0.999974
0.999943
0.999921
0.9999
0.999878
0.99986
0.999842
0.999828
0.999815
0.999802
0.999795
0.999786
0.999779
0.99977
0.999767
0.999965
1.00007
1.00018
1.00024
1.0003
1.00037
1.00043
1.00049
1.00054
1.00058
1.00062
1.00065
1.00067
1.00069
1.00071
1.00072
1.00073
1.00074
0.999753
0.999568
0.999366
0.999131
0.998913
0.998704
0.998509
0.998342
0.998201
0.998088
0.998002
0.997936
0.997889
0.997856
0.997838
0.997829
0.997822
0.997814
0.999992
1.00043
1.00095
1.00167
1.00247
1.00316
1.00368
1.00405
1.00429
1.00442
1.00447
1.00446
1.0044
1.00432
1.00421
1.00409
1.00396
1.00386
0.999945
0.996247
0.990161
0.98452
0.980273
0.977358
0.975527
0.97452
0.974115
0.974128
0.974432
0.974931
0.975556
0.976259
0.977006
0.977763
0.978549
0.979195
1.0214
1.05634
1.0798
1.09471
1.10362
1.10848
1.11069
1.11118
1.11056
1.10922
1.10743
1.10537
1.10317
1.1009
1.09862
1.09638
1.09417
1.09224
0.922802
0.82784
0.774466
0.743959
0.725618
0.714657
0.708441
0.705217
0.70388
0.70374
0.704359
0.705454
0.70684
0.708395
0.710039
0.711701
0.713398
0.714943
1.06291
1.12901
1.16726
1.19166
1.20826
1.21975
1.22781
1.23361
1.2379
1.24113
1.24365
1.24564
1.24725
1.24858
1.24971
1.25063
1.25155
1.25214
-1.01549e-19
2.63317e-19
-2.60092e-19
-2.44672e-19
-3.32556e-20
1.26193e-19
2.47146e-19
3.296e-19
3.4861e-19
3.08915e-19
2.90147e-19
8.45412e-19
2.46379e-19
-1.59696e-17
-3.19035e-17
2.0108e-16
9.4082e-16
2.31739e-17
-9.87986e-15
-2.8776e-14
-3.52833e-15
2.06672e-13
6.76052e-13
8.6552e-13
-1.12168e-12
-8.37518e-12
-2.21686e-11
-3.4672e-11
-1.88426e-11
7.81002e-11
3.26494e-10
7.79309e-10
1.4043e-09
1.99011e-09
2.05067e-09
7.67988e-10
-2.97844e-09
-1.04522e-08
-2.27465e-08
-4.03236e-08
-6.24517e-08
-8.66194e-08
-1.08034e-07
-1.19324e-07
-1.10552e-07
-6.96366e-08
1.67804e-08
1.62012e-07
3.77612e-07
6.71348e-07
1.04503e-06
1.49236e-06
1.99706e-06
2.53136e-06
3.05518e-06
3.51596e-06
3.84939e-06
3.981e-06
3.82873e-06
3.3062e-06
2.32671e-06
8.07922e-07
-1.32316e-06
-4.12503e-06
-7.63652e-06
-1.1872e-05
-1.68167e-05
-2.24233e-05
-2.86087e-05
-3.52522e-05
-4.21944e-05
-4.92373e-05
-5.6146e-05
-6.2651e-05
-6.84516e-05
-7.32203e-05
-7.66088e-05
-7.8254e-05
-7.77842e-05
-7.48272e-05
-6.90178e-05
-6.00045e-05
-4.74577e-05
-3.10773e-05
-1.05983e-05
1.42019e-05
4.34985e-05
7.74141e-05
0.000116015
0.00015931
0.000207244
0.0002597
0.0003165
0.000377399
0.000442093
0.000510215
0.000581338
0.000654976
0.000730577
0.000807513
0.000885011
0.000961854
0.00103532
0.00110477
0.00116913
0.00122745
0.00127879
0.00132226
0.00135704
0.00138235
0.00139748
0.00140178
0.00139469
0.0013757
0.00134438
0.00130037
0.0012434
0.00117327
0.00108987
0.000993158
0.000883182
0.000760075
0.000624058
0.000475442
0.000314625
0.000142103
-4.15324e-05
-0.000235593
-0.00043929
-0.000651741
-0.000871966
-0.00109889
-0.00133134
-0.00156805
-0.00180767
-0.00204875
-0.00228981
-0.0025293
-0.00276563
-0.00299718
-0.00322227
-0.00343924
-0.0036465
-0.00384245
-0.00402556
-0.00419425
-0.00434714
-0.00448317
-0.00460126
-0.00470028
-0.00477952
-0.00483876
-0.00487687
-0.0048938
-0.00489109
-0.0048667
-0.00482138
-0.00475725
-0.00467256
-0.00457217
-0.0044479
-0.00429759
-0.00413784
-0.00396893
-0.00372839
-0.00340905
-0.00308055
-0.00276179
-0.00245429
-0.00215763
-0.00187102
-0.00159315
-0.00132213
-0.00105465
-0.000786304
-0.000507577
-0.00020677
0.000132924
0.000577593
0.000966707
1.58498e-17
3.23466e-18
1.4092e-18
-1.4679e-18
-3.5059e-18
-4.50986e-18
-4.66556e-18
-4.32895e-18
-3.78721e-18
-3.04335e-18
-2.45688e-18
-5.99744e-18
-1.51116e-17
2.68174e-17
2.60771e-16
3.78274e-16
-1.78395e-15
-9.10995e-15
-1.22158e-14
3.55261e-14
2.05374e-13
4.2664e-13
1.0421e-13
-2.17379e-12
-7.87859e-12
-1.53935e-11
-1.40496e-11
2.21035e-11
1.33726e-10
3.58114e-10
6.83868e-10
9.7719e-10
8.95466e-10
-1.75139e-10
-3.10321e-09
-8.85594e-09
-1.81558e-08
-3.09384e-08
-4.56541e-08
-5.85207e-08
-6.28961e-08
-4.89782e-08
-4.05632e-09
8.64958e-08
2.37361e-07
4.60535e-07
7.61801e-07
1.13669e-06
1.56628e-06
2.0133e-06
2.41906e-06
2.70175e-06
2.75672e-06
2.459e-06
1.66854e-06
2.38232e-07
-1.97549e-06
-5.09961e-06
-9.22948e-06
-1.44127e-05
-2.06324e-05
-2.77914e-05
-3.56973e-05
-4.40509e-05
-5.24371e-05
-6.03215e-05
-6.70513e-05
-7.18613e-05
-7.38869e-05
-7.21825e-05
-6.57457e-05
-5.35468e-05
-3.45636e-05
-7.81862e-06
2.75803e-05
7.23977e-05
0.000127229
0.00019246
0.00026823
0.000354395
0.000450506
0.000555785
0.000669109
0.000789009
0.000913673
0.00104096
0.00116843
0.00129337
0.00141281
0.00152362
0.00162255
0.00170625
0.00177139
0.00181469
0.001833
0.00182336
0.00178307
0.00170974
0.00160138
0.00145646
0.00127415
0.00105503
0.000802352
0.000517349
0.000202219
-0.00014056
-0.000508155
-0.000897463
-0.00130518
-0.00172787
-0.00216201
-0.00260409
-0.00305064
-0.00349835
-0.00394407
-0.00438492
-0.00481831
-0.00524201
-0.00565417
-0.00605335
-0.00643861
-0.00680943
-0.00716576
-0.00750805
-0.00783715
-0.00815441
-0.00846157
-0.00876074
-0.00905439
-0.00934527
-0.00963635
-0.00993079
-0.0102318
-0.0105428
-0.0108668
-0.0112071
-0.0115666
-0.0119478
-0.0123531
-0.0127843
-0.0132429
-0.0137299
-0.0142455
-0.0147897
-0.0153615
-0.0159598
-0.0165823
-0.0172258
-0.0178869
-0.0185622
-0.0192477
-0.0199386
-0.0206299
-0.0213148
-0.0219873
-0.0226441
-0.0232798
-0.0238854
-0.0244569
-0.0250003
-0.0254857
-0.0259143
-0.0262959
-0.0266161
-0.026864
-0.0270071
-0.0270392
-0.0269778
-0.0268327
-0.0266078
-0.0263039
-0.0259188
-0.0254481
-0.0248784
-0.0241932
-0.0233277
-0.02226
-0.0205789
-0.0187804
-0.012541
5.45288e-17
-3.98579e-19
2.36993e-17
3.78911e-17
3.93184e-17
3.59278e-17
3.13912e-17
2.70146e-17
2.3297e-17
2.00685e-17
1.39657e-17
1.89167e-18
2.4566e-17
2.13482e-16
4.39971e-16
-9.08614e-16
-6.9481e-15
-1.33593e-14
1.43113e-14
1.45686e-13
3.74444e-13
2.9442e-13
-1.27002e-12
-5.90452e-12
-1.31645e-11
-1.51322e-11
1.04075e-11
1.01758e-10
2.98539e-10
5.97496e-10
8.73343e-10
7.77739e-10
-3.42496e-10
-3.43778e-09
-9.57139e-09
-1.94796e-08
-3.28419e-08
-4.73091e-08
-5.74434e-08
-5.38418e-08
-2.28029e-08
5.30581e-08
1.92879e-07
4.14055e-07
7.27147e-07
1.12941e-06
1.59752e-06
2.08033e-06
2.49268e-06
2.71169e-06
2.5766e-06
1.89355e-06
4.46056e-07
-1.98816e-06
-5.61407e-06
-1.05905e-05
-1.6997e-05
-2.47978e-05
-3.38061e-05
-4.36507e-05
-5.37483e-05
-6.3285e-05
-7.12099e-05
-7.62427e-05
-7.68981e-05
-7.15283e-05
-5.83841e-05
-3.5693e-05
-1.75327e-06
4.49584e-05
0.00010567
0.00018119
0.000271788
0.000377075
0.000495902
0.000626268
0.000765253
0.000908982
0.00105262
0.00119037
0.0013156
0.00142085
0.00149805
0.0015386
0.00153365
0.00147425
0.00135159
0.00115728
0.00088358
0.000523626
7.16718e-05
-0.000476702
-0.0011244
-0.00187269
-0.00272106
-0.00366716
-0.00470678
-0.00583384
-0.00704034
-0.00831619
-0.009648
-0.0110137
-0.0123998
-0.0137918
-0.0151746
-0.0165329
-0.0178512
-0.0191135
-0.0203043
-0.021408
-0.0224094
-0.0232937
-0.0240466
-0.0246545
-0.0251044
-0.0253847
-0.0254843
-0.0253936
-0.0251042
-0.0246093
-0.0239035
-0.0229833
-0.0218468
-0.0204939
-0.0189269
-0.0171496
-0.0151684
-0.0129914
-0.010629
-0.00809405
-0.00540102
-0.00256658
0.000390654
0.00345031
0.00659024
0.00978675
0.0130149
0.0162489
0.0194621
0.0226276
0.0257177
0.0287049
0.0315625
0.0342648
0.0367871
0.0391033
0.0411904
0.0430302
0.0446061
0.0459006
0.046902
0.0476058
0.0479897
0.0480501
0.0478232
0.0472751
0.0463902
0.0452226
0.0437464
0.0419393
0.0398704
0.0374859
0.0347852
0.031907
0.0287688
0.0252828
0.0215745
0.0177638
0.013925
0.0100997
0.00630964
0.00256355
-0.0011429
-0.0048301
-0.00853937
-0.0123427
-0.0163685
-0.0207263
-0.0256986
-0.0315187
-5.09226e-17
-9.94658e-17
-2.4122e-16
-2.40576e-16
-2.06945e-16
-1.74927e-16
-1.48391e-16
-1.26735e-16
-1.08705e-16
-9.48277e-17
-9.00989e-17
-8.62714e-17
4.71776e-18
3.09797e-16
2.83356e-16
-2.63097e-15
-1.09196e-14
-1.26075e-14
4.30233e-14
2.27491e-13
4.57346e-13
1.01176e-13
-2.31677e-12
-8.30494e-12
-1.5989e-11
-1.34836e-11
2.8131e-11
1.53543e-10
3.99274e-10
7.32412e-10
9.4861e-10
5.52096e-10
-1.32139e-09
-5.83931e-09
-1.41453e-08
-2.66703e-08
-4.20565e-08
-5.58009e-08
-5.88986e-08
-3.69464e-08
2.96971e-08
1.64053e-07
3.88427e-07
7.17794e-07
1.1508e-06
1.65908e-06
2.17611e-06
2.58751e-06
2.72489e-06
2.36583e-06
1.24216e-06
-9.41427e-07
-4.47754e-06
-9.61486e-06
-1.6507e-05
-2.51542e-05
-3.53422e-05
-4.65837e-05
-5.80689e-05
-6.86319e-05
-7.67404e-05
-8.0515e-05
-7.77828e-05
-6.61669e-05
-4.32178e-05
-6.57996e-06
4.58099e-05
0.000115497
0.000203271
0.000308917
0.000430988
0.000566595
0.000711233
0.000858669
0.00100088
0.0011281
0.00122888
0.00129029
0.00129819
0.00123757
0.00109293
0.000848736
0.000489932
2.42209e-06
-0.000626434
-0.00140734
-0.00234865
-0.00345597
-0.00473195
-0.00617603
-0.00778437
-0.00954989
-0.0114623
-0.0135086
-0.0156728
-0.0179368
-0.0202807
-0.0226831
-0.0251214
-0.0275728
-0.0300144
-0.0324298
-0.0348008
-0.0371075
-0.0393302
-0.0414494
-0.0434452
-0.0452975
-0.0469858
-0.0484894
-0.0497869
-0.0508562
-0.0516751
-0.0522204
-0.0524685
-0.0523948
-0.0519751
-0.0511843
-0.0499974
-0.0483899
-0.0463374
-0.0438168
-0.0408061
-0.0372851
-0.0332355
-0.0286417
-0.0234912
-0.017775
-0.0114881
-0.00462967
0.00279614
0.0107802
0.0193084
0.0283608
0.0379122
0.0479315
0.058382
0.0692213
0.0804021
0.0918719
0.103573
0.115445
0.127422
0.139437
0.151422
0.163303
0.175007
0.186463
0.197597
0.208332
0.218607
0.228382
0.237557
0.246039
0.253884
0.260977
0.267214
0.272642
0.277176
0.280751
0.283369
0.284977
0.285536
0.28512
0.283679
0.281102
0.277449
0.272844
0.267397
0.261187
0.254267
0.246654
0.238322
0.229171
0.219042
0.207468
0.194175
0.176832
0.158329
0.117879
-1.56668e-15
3.88081e-16
9.82942e-16
9.69481e-16
8.46436e-16
7.27434e-16
6.25608e-16
5.41222e-16
4.71473e-16
4.10937e-16
3.51091e-16
3.06792e-16
3.85988e-16
6.90147e-16
4.77202e-16
-3.08675e-15
-1.20784e-14
-1.23365e-14
5.02101e-14
2.4736e-13
4.86487e-13
1.12094e-13
-2.39844e-12
-8.63651e-12
-1.68205e-11
-1.4954e-11
2.677e-11
1.55449e-10
4.11301e-10
7.62758e-10
9.94627e-10
5.71907e-10
-1.45285e-09
-6.37082e-09
-1.54376e-08
-2.90498e-08
-4.54327e-08
-5.8967e-08
-5.85193e-08
-2.64058e-08
6.11731e-08
2.31313e-07
5.08418e-07
9.0467e-07
1.40724e-06
1.96338e-06
2.46557e-06
2.73969e-06
2.53994e-06
1.55439e-06
-5.75104e-07
-4.21641e-06
-9.69251e-06
-1.72106e-05
-2.67783e-05
-3.81134e-05
-5.0557e-05
-6.29995e-05
-7.38335e-05
-8.09442e-05
-8.17489e-05
-7.32948e-05
-5.24194e-05
-1.5974e-05
3.88961e-05
0.000114424
0.000211863
0.000331123
0.000470418
0.00062596
0.00079172
0.000959288
0.00111785
0.00125427
0.00135338
0.0013983
0.00137097
0.00125277
0.0010252
0.00067061
0.000172936
-0.000481565
-0.00130371
-0.00230085
-0.00347653
-0.00483021
-0.00635735
-0.00804947
-0.00989451
-0.0118773
-0.0139804
-0.0161842
-0.0184685
-0.0208126
-0.0231963
-0.0256003
-0.0280071
-0.030401
-0.0327694
-0.0351039
-0.0374085
-0.0396892
-0.0419388
-0.0441531
-0.0463273
-0.0484566
-0.0505354
-0.0525564
-0.0545113
-0.0563892
-0.0581768
-0.0598576
-0.0614124
-0.0628174
-0.0640454
-0.0650647
-0.0658389
-0.0663273
-0.0664847
-0.0662618
-0.0656054
-0.0644584
-0.0627615
-0.0604532
-0.0574706
-0.0537511
-0.0492328
-0.043856
-0.0375646
-0.0303071
-0.0220387
-0.0127216
-0.00232658
0.00916622
0.0217666
0.0354733
0.0502735
0.0661415
0.0830395
0.100918
0.119716
0.139362
0.159772
0.180853
0.202504
0.224617
0.247082
0.269783
0.292603
0.3154
0.338041
0.360469
0.382541
0.404042
0.425016
0.445304
0.464724
0.48323
0.500722
0.517125
0.532359
0.546334
0.55899
0.570281
0.580147
0.588506
0.59533
0.600639
0.604463
0.606828
0.607749
0.607215
0.605183
0.601519
0.596066
0.588188
0.577855
0.561477
0.544713
0.497547
1.6244e-14
2.80129e-16
-2.48407e-15
-3.34582e-15
-3.24042e-15
-2.93141e-15
-2.59421e-15
-2.28296e-15
-2.01103e-15
-1.77926e-15
-1.58814e-15
-1.41644e-15
-1.15814e-15
-7.04777e-16
-6.74214e-16
-3.59023e-15
-1.1853e-14
-1.49163e-14
3.30964e-14
2.0432e-13
4.57806e-13
2.91411e-13
-1.62263e-12
-7.01706e-12
-1.53838e-11
-1.79389e-11
1.04198e-11
1.14176e-10
3.40934e-10
6.8705e-10
9.92464e-10
7.96535e-10
-7.87656e-10
-5.06415e-09
-1.34435e-08
-2.66568e-08
-4.3392e-08
-5.8429e-08
-6.06285e-08
-3.14734e-08
5.48234e-08
2.28451e-07
5.17261e-07
9.35497e-07
1.46817e-06
2.05243e-06
2.55873e-06
2.77592e-06
2.40535e-06
1.06979e-06
-1.65785e-06
-6.20228e-06
-1.29088e-05
-2.19438e-05
-3.31798e-05
-4.60739e-05
-5.9556e-05
-7.19424e-05
-8.08928e-05
-8.34297e-05
-7.60315e-05
-5.48109e-05
-1.57782e-05
4.48158e-05
0.000130075
0.000242014
0.000381118
0.000545919
0.000732667
0.000935095
0.00114435
0.00134909
0.00153574
0.00168897
0.00179235
0.00182906
0.00178282
0.00163871
0.00138409
0.00100935
0.000508527
-0.000120246
-0.000874593
-0.00174795
-0.0027299
-0.00380679
-0.00496249
-0.00617933
-0.00743919
-0.00872442
-0.010019
-0.0113092
-0.0125845
-0.013838
-0.0150666
-0.0162709
-0.0174554
-0.0186278
-0.0197989
-0.0209827
-0.0221996
-0.0234529
-0.0247561
-0.0261212
-0.0275608
-0.0290869
-0.0307115
-0.0324454
-0.034298
-0.0362762
-0.0383847
-0.0406241
-0.0429908
-0.0454762
-0.0480654
-0.0507363
-0.0534591
-0.0561954
-0.0588965
-0.0615046
-0.063951
-0.0661567
-0.0680328
-0.0694803
-0.0703924
-0.0706547
-0.0701469
-0.0687455
-0.0663259
-0.0627642
-0.0579412
-0.0517447
-0.0440736
-0.0348393
-0.0239688
-0.0114066
0.00288326
0.0189143
0.0366773
0.05614
0.0772489
0.099929
0.124084
0.149596
0.176333
0.204145
0.232871
0.262348
0.292423
0.322912
0.353586
0.384356
0.415065
0.44548
0.475478
0.504924
0.533685
0.561663
0.588739
0.614822
0.639829
0.663682
0.686328
0.707709
0.727782
0.746508
0.763859
0.779824
0.794397
0.807583
0.819375
0.829761
0.83873
0.8462
0.852144
0.856134
0.858522
0.856568
0.855455
0.835709
-8.56633e-14
-8.83456e-15
4.26251e-15
1.08587e-14
1.21258e-14
1.1691e-14
1.07157e-14
9.62811e-15
8.59657e-15
7.67049e-15
6.84936e-15
6.12907e-15
5.56886e-15
5.27097e-15
4.89779e-15
2.63876e-15
-4.18695e-15
-1.10221e-14
1.24752e-14
1.29505e-13
3.60942e-13
4.36892e-13
-5.7734e-13
-4.3018e-12
-1.15896e-11
-1.82157e-11
-7.57556e-12
5.57581e-11
2.21023e-10
5.17364e-10
8.72913e-10
9.82872e-10
1.58828e-10
-2.75063e-09
-9.21267e-09
-2.04389e-08
-3.62166e-08
-5.31013e-08
-6.21938e-08
-4.7099e-08
1.69121e-08
1.61186e-07
4.17963e-07
8.0951e-07
1.33177e-06
1.93355e-06
2.4939e-06
2.80238e-06
2.54827e-06
1.32598e-06
-1.33655e-06
-5.92079e-06
-1.28297e-05
-2.22709e-05
-3.41183e-05
-4.77653e-05
-6.19875e-05
-7.48364e-05
-8.35881e-05
-8.47672e-05
-7.42637e-05
-4.75495e-05
6.74406e-09
7.27379e-05
0.000174222
0.000306804
0.000471144
0.000665847
0.000887202
0.00112911
0.0013832
0.00163912
0.00188511
0.00210867
0.00229735
0.0024397
0.00252608
0.00254942
0.00250589
0.0023952
0.00222077
0.00198946
0.00171117
0.0013981
0.00106386
0.000722439
0.000387211
6.99529e-05
-0.000219978
-0.000476255
-0.000695962
-0.000879727
-0.0010316
-0.00115876
-0.00127105
-0.00138044
-0.00150043
-0.00164533
-0.00182888
-0.0020597
-0.00232812
-0.00264882
-0.00303489
-0.00350146
-0.00406503
-0.00474374
-0.00555725
-0.00652672
-0.00767464
-0.00902442
-0.0105999
-0.0124246
-0.0145209
-0.0169084
-0.019603
-0.0226147
-0.025946
-0.0295893
-0.0335253
-0.03772
-0.0421236
-0.0466674
-0.0512634
-0.055803
-0.0601574
-0.0641772
-0.0676951
-0.0705281
-0.0724799
-0.0733451
-0.0729146
-0.0709813
-0.0673458
-0.0618226
-0.0542469
-0.04448
-0.0324143
-0.0179764
-0.00113101
0.0181158
0.0397181
0.0635902
0.0896085
0.117613
0.147422
0.178816
0.211552
0.245375
0.280055
0.315337
0.350931
0.386598
0.422107
0.457231
0.491783
0.525586
0.558469
0.590308
0.620986
0.650418
0.678536
0.705291
0.730657
0.754618
0.777178
0.798352
0.818163
0.836646
0.853841
0.869793
0.884547
0.898145
0.91063
0.922012
0.93238
0.941538
0.950019
0.956196
0.963764
0.964132
3.39372e-13
5.99026e-14
1.45262e-16
-3.30253e-14
-4.41258e-14
-4.57637e-14
-4.36854e-14
-4.02276e-14
-3.64776e-14
-3.28947e-14
-2.96465e-14
-2.67528e-14
-2.41419e-14
-2.16755e-14
-1.93896e-14
-1.82203e-14
-2.03881e-14
-2.58694e-14
-2.03531e-14
3.92209e-14
2.03417e-13
3.9791e-13
1.35333e-13
-1.75079e-12
-6.69301e-12
-1.41195e-11
-1.6292e-11
8.83604e-12
1.01151e-10
3.05854e-10
6.26833e-10
9.30499e-10
8.04263e-10
-5.83163e-10
-4.50885e-09
-1.24332e-08
-2.52387e-08
-4.18089e-08
-5.69633e-08
-5.90855e-08
-2.82229e-08
6.41006e-08
2.51785e-07
5.66187e-07
1.0222e-06
1.5984e-06
2.21309e-06
2.6999e-06
2.78915e-06
2.1025e-06
1.69207e-07
-3.52857e-06
-9.47673e-06
-1.80161e-05
-2.92008e-05
-4.2641e-05
-5.73472e-05
-7.16021e-05
-8.28819e-05
-8.78561e-05
-8.2481e-05
-6.21982e-05
-2.22364e-05
4.19991e-05
0.000134485
0.000258123
0.00041432
0.000602664
0.00082073
0.00106408
0.00132643
0.00160005
0.00187628
0.00214623
0.0024015
0.00263485
0.00284084
0.00301626
0.0031603
0.00327459
0.0033629
0.00343062
0.00348415
0.00353022
0.00357512
0.00362414
0.00368116
0.00374833
0.0038262
0.00391379
0.004009
0.00410913
0.00421124
0.0043126
0.004411
0.00450483
0.00459312
0.00467565
0.00475433
0.00483981
0.00492829
0.00501573
0.00509655
0.0051635
0.00520713
0.00521528
0.0051726
0.00505995
0.00485382
0.004526
0.00404321
0.00336713
0.0024547
0.00125889
-0.000269966
-0.00218226
-0.00452649
-0.00734605
-0.0106753
-0.0145353
-0.0189286
-0.0238346
-0.0292049
-0.0349589
-0.0409802
-0.0471152
-0.0531722
-0.0589234
-0.064109
-0.0684413
-0.0716118
-0.0733009
-0.0731887
-0.0709652
-0.0663418
-0.0590615
-0.0489198
-0.0357607
-0.0194862
-6.385e-05
0.0224726
0.0480216
0.0764206
0.107445
0.140838
0.176283
0.21343
0.251926
0.291389
0.331446
0.371733
0.411907
0.451646
0.490647
0.528654
0.565438
0.600808
0.634617
0.666746
0.697113
0.725669
0.752389
0.777281
0.800366
0.821697
0.841331
0.859336
0.875803
0.890818
0.90447
0.916854
0.928062
0.938182
0.947279
0.955489
0.962713
0.969504
0.974639
0.981181
0.983738
-1.28678e-12
-3.12859e-13
-5.69291e-14
9.20178e-14
1.56214e-13
1.75916e-13
1.75586e-13
1.66208e-13
1.5342e-13
1.39976e-13
1.27169e-13
1.15459e-13
1.04908e-13
9.54731e-14
8.7091e-14
7.93378e-14
7.08212e-14
5.98256e-14
4.97879e-14
6.13131e-14
1.3797e-13
3.03028e-13
4.04004e-13
-1.54742e-13
-2.54475e-12
-7.82114e-12
-1.4336e-11
-1.25696e-11
2.11521e-11
1.25953e-10
3.40266e-10
6.51287e-10
8.97044e-10
6.2902e-10
-1.01314e-09
-5.30035e-09
-1.36078e-08
-2.65975e-08
-4.2738e-08
-5.61999e-08
-5.4497e-08
-1.67044e-08
8.64451e-08
2.88956e-07
6.20858e-07
1.09335e-06
1.67804e-06
2.28226e-06
2.72479e-06
2.71851e-06
1.86783e-06
-3.1053e-07
-4.3365e-06
-1.06817e-05
-1.96523e-05
-3.12467e-05
-4.50052e-05
-5.98694e-05
-7.40783e-05
-8.51259e-05
-8.97995e-05
-8.43155e-05
-6.45518e-05
-2.63657e-05
3.40277e-05
0.000119656
0.000232414
0.000372762
0.000539541
0.000729936
0.0009396
0.00116294
0.00139353
0.00162459
0.00184954
0.00206241
0.00225829
0.0024335
0.0025857
0.00271377
0.00281758
0.00289773
0.00295517
0.00299096
0.00300609
0.00300143
0.00297781
0.00293626
0.00287825
0.002806
0.00272272
0.00263273
0.00254141
0.00245514
0.00238096
0.00232624
0.00229821
0.00230342
0.0023464
0.00241825
0.00251922
0.00265226
0.00281966
0.00302351
0.00326508
0.00354426
0.00385872
0.00420284
0.00456651
0.00493365
0.00528069
0.00557507
0.00577391
0.005823
0.00565659
0.00519808
0.00436187
0.00305672
0.00119055
-0.00132352
-0.00455929
-0.00856859
-0.0133718
-0.0189487
-0.0252294
-0.0320872
-0.0393334
-0.0467149
-0.0539181
-0.0605782
-0.0662836
-0.0705912
-0.0730441
-0.0731892
-0.0706009
-0.0648786
-0.0557044
-0.0428331
-0.0261037
-0.00545281
0.0190843
0.0473699
0.0791764
0.114195
0.15204
0.192272
0.234416
0.277973
0.322436
0.367308
0.412112
0.456403
0.499784
0.541901
0.582453
0.621195
0.657936
0.692537
0.724903
0.754986
0.78278
0.80831
0.83163
0.852818
0.871969
0.889198
0.904617
0.918353
0.930534
0.941286
0.950733
0.958986
0.966167
0.972359
0.977714
0.982161
0.986225
0.988786
0.992712
0.993
5.0424e-12
1.46553e-12
4.14912e-13
-2.23616e-13
-5.4241e-13
-6.68618e-13
-6.98909e-13
-6.80851e-13
-6.40576e-13
-5.91968e-13
-5.42495e-13
-4.95712e-13
-4.52803e-13
-4.13738e-13
-3.78146e-13
-3.45707e-13
-3.1661e-13
-2.9193e-13
-2.72298e-13
-2.52001e-13
-2.08844e-13
-1.04349e-13
6.63311e-14
1.25717e-13
-5.13819e-13
-2.91338e-12
-7.88656e-12
-1.35838e-11
-1.08615e-11
2.21594e-11
1.20888e-10
3.19406e-10
6.04908e-10
8.29653e-10
5.86671e-10
-9.06128e-10
-4.81209e-09
-1.24113e-08
-2.4374e-08
-3.9424e-08
-5.24056e-08
-5.20682e-08
-1.93023e-08
7.2994e-08
2.56914e-07
5.619e-07
1.00143e-06
1.55418e-06
2.14133e-06
2.60399e-06
2.68638e-06
2.03213e-06
2.01003e-07
-3.28798e-06
-8.88414e-06
-1.69057e-05
-2.74213e-05
-4.01265e-05
-5.42346e-05
-6.8402e-05
-8.07107e-05
-8.87216e-05
-8.9608e-05
-8.03657e-05
-5.80837e-05
-2.02498e-05
3.49441e-05
0.000108335
0.0001996
0.000307166
0.000428245
0.000558986
0.00069473
0.000830333
0.000960525
0.00108025
0.00118497
0.00127086
0.00133497
0.00137523
0.00139047
0.00138037
0.0013454
0.00128679
0.0012065
0.00110724
0.000992461
0.000866282
0.000733378
0.000598775
0.000467564
0.000344581
0.000234103
0.000139632
6.37909e-05
8.37227e-06
-2.56637e-05
-3.89893e-05
-3.86506e-05
-2.63943e-05
1.20597e-06
4.76476e-05
0.000117903
0.000218285
0.000356535
0.000541649
0.000783435
0.00109167
0.00147473
0.00193768
0.0024797
0.00309102
0.00374944
0.00441684
0.00503597
0.00552818
0.00579264
0.00570782
0.00513647
0.0039337
0.00195549
-0.000926983
-0.00481219
-0.00975188
-0.0157353
-0.0226752
-0.0303975
-0.0386334
-0.0470106
-0.0550822
-0.0623251
-0.0681618
-0.0719875
-0.0731938
-0.0712184
-0.0655299
-0.0557068
-0.041437
-0.0225309
0.00106369
0.0292576
0.0618271
0.0984269
0.138605
0.181824
0.22748
0.274936
0.323539
0.372649
0.421652
0.469981
0.517129
0.562659
0.606203
0.647469
0.686244
0.72238
0.755796
0.786462
0.814408
0.839702
0.862443
0.882762
0.9008
0.916716
0.930678
0.94285
0.953399
0.962481
0.970255
0.976862
0.982432
0.987096
0.990947
0.994135
0.996605
0.998851
0.99984
1.00222
1.00143
-2.01427e-11
-6.54904e-12
-2.27635e-12
3.89443e-13
1.85866e-12
2.52811e-12
2.7676e-12
2.77354e-12
2.66019e-12
2.49139e-12
2.30416e-12
2.11898e-12
1.94525e-12
1.78525e-12
1.63863e-12
1.50443e-12
1.38156e-12
1.26864e-12
1.16375e-12
1.06579e-12
9.79833e-13
9.25689e-13
9.36706e-13
1.01588e-12
1.00882e-12
4.07683e-13
-1.72142e-12
-6.18953e-12
-1.1755e-11
-1.12899e-11
1.30585e-11
9.16457e-11
2.5737e-10
5.11351e-10
7.52779e-10
6.73928e-10
-3.49551e-10
-3.29694e-09
-9.34069e-09
-1.93208e-08
-3.27098e-08
-4.60324e-08
-5.09345e-08
-3.24259e-08
3.17924e-08
1.69701e-07
4.09737e-07
7.70989e-07
1.24862e-06
1.79564e-06
2.30367e-06
2.58712e-06
2.37613e-06
1.32411e-06
-9.65584e-07
-4.89135e-06
-1.07852e-05
-1.88307e-05
-2.89771e-05
-4.08646e-05
-5.37747e-05
-6.66216e-05
-7.79941e-05
-8.62521e-05
-8.96733e-05
-8.66375e-05
-7.58278e-05
-5.64236e-05
-2.82586e-05
8.0797e-06
5.12251e-05
9.909e-05
0.000149
0.000197893
0.000242559
0.000279896
0.000307156
0.000322163
0.000323479
0.000310517
0.0002836
0.000243963
0.000193693
0.00013562
7.31417e-05
9.98693e-06
-5.0076e-05
-0.000103582
-0.00014773
-0.000180711
-0.000201961
-0.000212271
-0.00021372
-0.000209427
-0.000203129
-0.000198667
-0.000199462
-0.000208099
-0.000218792
-0.000232481
-0.00024883
-0.000266954
-0.000284725
-0.000298231
-0.000301062
-0.000283636
-0.000232675
-0.000131114
4.12879e-05
0.000306336
0.000684539
0.0011909
0.00182946
0.00258693
0.00342617
0.00428033
0.00504872
0.00559496
0.00574675
0.00531366
0.00409279
0.00188901
-0.00146257
-0.00607195
-0.0119695
-0.0190842
-0.0272272
-0.036088
-0.0452092
-0.0540297
-0.0618902
-0.068062
-0.0717872
-0.0723175
-0.0689564
-0.0611072
-0.0483
-0.0302223
-0.00673604
0.0221133
0.0560992
0.0948289
0.137767
0.18426
0.233571
0.284912
0.337477
0.390479
0.443171
0.494869
0.544974
0.592976
0.638465
0.68113
0.720755
0.757214
0.79046
0.820517
0.847462
0.871426
0.892573
0.911085
0.927173
0.941047
0.952919
0.963
0.971487
0.978577
0.984445
0.989253
0.99315
0.996262
0.998718
1.00061
1.00206
1.00303
1.00396
1.00391
1.00528
1.00396
8.1203e-11
2.86087e-11
1.11927e-11
1.94499e-13
-6.30763e-12
-9.55439e-12
-1.09445e-11
-1.12683e-11
-1.10095e-11
-1.04483e-11
-9.75412e-12
-9.02853e-12
-8.32842e-12
-7.67419e-12
-7.06912e-12
-6.51117e-12
-5.99696e-12
-5.52343e-12
-5.08856e-12
-4.69133e-12
-4.33024e-12
-3.99855e-12
-3.67659e-12
-3.33055e-12
-2.94409e-12
-2.61875e-12
-2.74625e-12
-4.12999e-12
-7.69492e-12
-1.3171e-11
-1.6169e-11
-3.90927e-12
4.79616e-11
1.71474e-10
3.85583e-10
6.47738e-10
7.73181e-10
3.35849e-10
-1.40271e-09
-5.44786e-09
-1.27847e-08
-2.37172e-08
-3.67575e-08
-4.71255e-08
-4.51496e-08
-1.51407e-08
6.44254e-08
2.18442e-07
4.69559e-07
8.29006e-07
1.28423e-06
1.78477e-06
2.229e-06
2.45504e-06
2.23987e-06
1.30966e-06
-6.36463e-07
-3.88997e-06
-8.68663e-06
-1.51565e-05
-2.32785e-05
-3.28481e-05
-4.34676e-05
-5.45636e-05
-6.54346e-05
-7.53256e-05
-8.35219e-05
-8.94498e-05
-9.27701e-05
-9.34491e-05
-9.1795e-05
-8.84509e-05
-8.43415e-05
-8.05789e-05
-7.83342e-05
-7.86904e-05
-8.24937e-05
-9.02186e-05
-0.000101866
-0.000116905
-0.000134273
-0.000152441
-0.000169532
-0.000183517
-0.00019245
-0.000194722
-0.000189322
-0.000176048
-0.000155627
-0.000129707
-0.000100688
-7.14041e-05
-4.46935e-05
-2.29587e-05
-7.81878e-06
1.45024e-07
2.09835e-06
1.58004e-06
-1.27726e-06
-7.8381e-06
-1.96181e-05
-3.84287e-05
-6.58793e-05
-0.00010257
-0.000146813
-0.000193157
-0.000230817
-0.000242406
-0.000203511
-8.37093e-05
0.000150482
0.00053038
0.00107767
0.00179516
0.00265675
0.00359805
0.00450977
0.00523861
0.00557617
0.00528922
0.00412829
0.00185409
-0.00173123
-0.00675067
-0.0132199
-0.0210199
-0.0298772
-0.0393547
-0.0488623
-0.0576731
-0.0649575
-0.0698283
-0.0713931
-0.0688087
-0.0613363
-0.0483895
-0.0295712
-0.00469996
0.0261798
0.0628001
0.104686
0.151186
0.201509
0.254763
0.310004
0.366279
0.422662
0.478294
0.532404
0.584329
0.633533
0.679602
0.722244
0.761282
0.79665
0.828369
0.856533
0.881303
0.902882
0.921507
0.93743
0.950916
0.962228
0.97162
0.979335
0.9856
0.990622
0.994591
0.997675
1.00002
1.00175
1.00299
1.00383
1.00434
1.00464
1.00465
1.00478
1.00412
1.00491
1.00332
-3.30269e-10
-1.23318e-10
-5.20711e-11
-6.86623e-12
2.12544e-11
3.62318e-11
4.33609e-11
4.5782e-11
4.55044e-11
4.37299e-11
4.12021e-11
3.83842e-11
3.5573e-11
3.29005e-11
3.04042e-11
2.80864e-11
2.59382e-11
2.3949e-11
2.21101e-11
2.04133e-11
1.8851e-11
1.74156e-11
1.6103e-11
1.49202e-11
1.38889e-11
1.30281e-11
1.22819e-11
1.13741e-11
9.64677e-12
6.10925e-12
1.62626e-13
-6.41976e-12
-6.01278e-12
1.88278e-11
9.63753e-11
2.57126e-10
5.06502e-10
7.7115e-10
8.19991e-10
1.80446e-10
-1.90074e-09
-6.37085e-09
-1.40572e-08
-2.50356e-08
-3.76539e-08
-4.73065e-08
-4.52327e-08
-1.78014e-08
5.311e-08
1.8801e-07
4.05493e-07
7.15651e-07
1.11168e-06
1.56083e-06