/*--------------------------------*- C++ -*----------------------------------*\
| =========                 |                                                 |
| \\      /  F ield         | OpenFOAM: The Open Source CFD Toolbox           |
|  \\    /   O peration     | Version:  4.1                                   |
|   \\  /    A nd           | Web:      www.OpenFOAM.org                      |
|    \\/     M anipulation  |                                                 |
\*---------------------------------------------------------------------------*/
FoamFile
{
    version     2.0;
    format      ascii;
    class       volScalarField;
    location    "0.025";
    object      T;
}
// * * * * * * * * * * * * * * * * * * * * * * * * * * * * * * * * * * * * * //

dimensions      [0 0 0 1 0 0 0];

internalField   nonuniform List<scalar> 
12225
(
0.625082
0.501659
0.482429
0.479445
0.478893
0.478746
0.478693
0.478669
0.478655
0.478644
0.478629
0.478599
0.478523
0.47833
0.477848
0.476655
0.473671
0.465975
0.617081
0.498208
0.480748
0.478495
0.478335
0.47841
0.478486
0.478541
0.478577
0.478598
0.478605
0.478589
0.478525
0.478345
0.477885
0.476751
0.473989
0.467287
0.621282
0.500687
0.482151
0.479347
0.478884
0.478769
0.478724
0.478699
0.478683
0.47867
0.478654
0.478624
0.478552
0.478374
0.477942
0.476906
0.474499
0.469176
0.621277
0.500416
0.481761
0.479003
0.478628
0.478587
0.478593
0.478605
0.478615
0.47862
0.478618
0.478599
0.478538
0.478381
0.477995
0.477095
0.475102
0.471044
0.621238
0.500487
0.481847
0.479071
0.47869
0.478643
0.47864
0.478643
0.478645
0.478644
0.478638
0.478617
0.478559
0.478418
0.478082
0.477328
0.475747
0.472753
0.621177
0.50051
0.481888
0.479083
0.478687
0.478637
0.478634
0.478637
0.47864
0.478641
0.478636
0.478618
0.478568
0.478447
0.478168
0.477564
0.476358
0.474206
0.621178
0.500547
0.481941
0.479115
0.478704
0.47865
0.478644
0.478646
0.478648
0.478648
0.478643
0.478627
0.478585
0.478484
0.47826
0.477795
0.476909
0.4754
0.621179
0.500558
0.481969
0.479137
0.478717
0.478659
0.478652
0.478652
0.478653
0.478653
0.478648
0.478634
0.478599
0.478515
0.478335
0.477973
0.477305
0.476202
0.621177
0.500563
0.481988
0.479156
0.478731
0.478669
0.47866
0.478659
0.478659
0.478658
0.478654
0.478642
0.478612
0.478543
0.478398
0.478115
0.477608
0.47679
0.621174
0.500565
0.482002
0.479173
0.478745
0.47868
0.478669
0.478667
0.478666
0.478665
0.47866
0.47865
0.478626
0.478571
0.47846
0.47825
0.477881
0.4773
0.621171
0.500564
0.482012
0.479188
0.478759
0.478692
0.47868
0.478676
0.478675
0.478672
0.478668
0.478659
0.478641
0.4786
0.478519
0.47837
0.478116
0.477721
0.621167
0.500561
0.482017
0.479198
0.478771
0.478704
0.47869
0.478686
0.478683
0.478681
0.478677
0.47867
0.478656
0.478627
0.478571
0.478472
0.478305
0.478053
0.621164
0.500557
0.482019
0.479205
0.47878
0.478714
0.4787
0.478696
0.478692
0.478689
0.478686
0.47868
0.47867
0.478651
0.478615
0.478553
0.478451
0.478299
0.621161
0.500553
0.482019
0.479209
0.478786
0.47872
0.478708
0.478704
0.478701
0.478698
0.478695
0.478691
0.478684
0.478671
0.47865
0.478613
0.478556
0.478471
0.621158
0.500549
0.482017
0.47921
0.478789
0.478725
0.478713
0.47871
0.478708
0.478705
0.478703
0.4787
0.478695
0.478687
0.478675
0.478656
0.478625
0.478582
0.621156
0.500546
0.482015
0.479209
0.47879
0.478728
0.478717
0.478714
0.478712
0.47871
0.478709
0.478707
0.478704
0.478699
0.478693
0.478682
0.478667
0.478648
0.621154
0.500544
0.482013
0.479208
0.47879
0.478728
0.478718
0.478716
0.478714
0.478714
0.478712
0.47871
0.478709
0.478707
0.478704
0.478698
0.478691
0.478682
0.621154
0.500543
0.482012
0.479208
0.47879
0.478728
0.478718
0.478715
0.478714
0.478714
0.478713
0.478712
0.478711
0.478709
0.478706
0.478703
0.4787
0.478697
0.621154
0.500543
0.482012
0.479207
0.478789
0.478728
0.478718
0.478714
0.478712
0.478712
0.47871
0.478709
0.478708
0.478707
0.478706
0.478703
0.478701
0.4787
0.621154
0.500544
0.482012
0.479207
0.478788
0.478725
0.478715
0.478711
0.478709
0.478707
0.478706
0.478705
0.478704
0.478703
0.478702
0.478701
0.478699
0.478699
0.621154
0.500545
0.482014
0.479206
0.478784
0.47872
0.478709
0.478705
0.478703
0.478701
0.478699
0.478698
0.478697
0.478696
0.478696
0.478695
0.478694
0.478694
0.621154
0.500547
0.482015
0.479204
0.47878
0.478714
0.478702
0.478698
0.478696
0.478694
0.478693
0.478692
0.478692
0.478691
0.478691
0.47869
0.478689
0.47869
0.621152
0.500551
0.482014
0.479195
0.478767
0.478701
0.478689
0.478685
0.478684
0.478683
0.478683
0.478682
0.478682
0.478683
0.478682
0.478682
0.478682
0.478683
0.621147
0.500559
0.482014
0.479187
0.478759
0.478694
0.478684
0.478681
0.478681
0.47868
0.47868
0.47868
0.478681
0.478681
0.478681
0.478681
0.478681
0.478682
0.621134
0.500551
0.481983
0.479149
0.478725
0.478665
0.478657
0.478657
0.478658
0.47866
0.478662
0.478664
0.478665
0.478667
0.478669
0.47867
0.478671
0.478672
0.621195
0.500594
0.48198
0.479154
0.478749
0.478696
0.478689
0.478687
0.478686
0.478685
0.478684
0.478682
0.478681
0.47868
0.47868
0.47868
0.478679
0.47868
0.621276
0.500532
0.481808
0.478971
0.478582
0.478548
0.478561
0.47858
0.478597
0.478611
0.478622
0.478631
0.478639
0.478645
0.478651
0.478655
0.478659
0.478661
0.621626
0.501078
0.482445
0.479563
0.479064
0.478923
0.47885
0.478804
0.478771
0.478747
0.47873
0.478716
0.478707
0.4787
0.478695
0.478691
0.47869
0.478684
0.617042
0.497852
0.480426
0.478232
0.478138
0.478261
0.478372
0.478454
0.478512
0.478553
0.478582
0.478604
0.47862
0.478632
0.478642
0.47865
0.478659
0.478657
0.625111
0.502056
0.482622
0.479575
0.479005
0.478839
0.47877
0.478733
0.478711
0.478697
0.478687
0.47868
0.478676
0.478673
0.478671
0.478671
0.478674
0.478662
0.112919
0.112886
0.112815
0.112711
0.112575
0.112405
0.112203
0.111969
0.111702
0.111405
0.111077
0.11072
0.110334
0.10992
0.109479
0.109012
0.108521
0.108006
0.107469
0.106911
0.106333
0.105737
0.105123
0.104494
0.10385
0.103193
0.102525
0.101846
0.101159
0.100463
0.0997618
0.0990553
0.0983452
0.0976327
0.0969191
0.0962056
0.0954934
0.0947836
0.0940774
0.0933757
0.0926797
0.0919903
0.0913083
0.0906348
0.0899705
0.0893162
0.0886725
0.0880401
0.0874197
0.0868119
0.0862169
0.0856354
0.0850677
0.0845141
0.0839748
0.08345
0.0829399
0.0824446
0.0819641
0.0814985
0.0810477
0.0806116
0.08019
0.0797829
0.07939
0.0790111
0.0786459
0.0782942
0.0779555
0.0776297
0.0773162
0.0770148
0.076725
0.0764464
0.0761784
0.0759207
0.0756726
0.0754337
0.0752034
0.074981
0.0747659
0.0745575
0.0743549
0.0741575
0.0739644
0.0737748
0.0735878
0.0734024
0.0732176
0.0730325
0.072846
0.0726571
0.0724647
0.0722676
0.0720648
0.0718552
0.0716377
0.0714112
0.0711747
0.0709273
0.0706679
0.0703957
0.0701097
0.0698092
0.0694934
0.0691614
0.0688127
0.0684465
0.068062
0.0676588
0.0672361
0.0667933
0.0663298
0.0658451
0.0653385
0.0648094
0.0642573
0.0636818
0.0630822
0.062458
0.0618089
0.0611344
0.060434
0.0597074
0.0589542
0.0581742
0.0573671
0.0565326
0.0556707
0.0547813
0.0538643
0.0529197
0.0519478
0.0509486
0.0499226
0.0488701
0.0477916
0.0466877
0.0455591
0.0444068
0.0432316
0.0420347
0.0408174
0.039581
0.0383272
0.0370576
0.0357741
0.0344788
0.0331738
0.0318615
0.0305443
0.029225
0.0279062
0.0265909
0.0252821
0.0239828
0.0226962
0.0214255
0.0201739
0.0189447
0.0177408
0.0165656
0.0154222
0.0143126
0.0132401
0.0122074
0.0112161
0.0102689
0.00936723
0.00851248
0.00770555
0.00694699
0.00623698
0.00557534
0.0049616
0.00439499
0.00387488
0.00340041
0.00297417
0.0025951
0.113901
0.113864
0.113795
0.113691
0.113554
0.113383
0.113179
0.112943
0.112673
0.112372
0.11204
0.111679
0.111288
0.11087
0.110424
0.109954
0.109458
0.10894
0.108399
0.107838
0.107257
0.106658
0.106042
0.10541
0.104765
0.104106
0.103436
0.102756
0.102067
0.10137
0.100667
0.0999598
0.0992487
0.0985353
0.0978208
0.0971065
0.0963935
0.095683
0.094976
0.0942736
0.0935769
0.0928868
0.0922042
0.0915301
0.0908651
0.0902102
0.089566
0.0889331
0.0883122
0.0877038
0.0871084
0.0865264
0.0859582
0.0854042
0.0848645
0.0843394
0.083829
0.0833335
0.0828529
0.0823873
0.0819364
0.0815004
0.081079
0.0806721
0.0802795
0.079901
0.0795364
0.0791852
0.0788473
0.0785223
0.0782098
0.0779094
0.0776208
0.0773434
0.0770769
0.0768208
0.0765745
0.0763375
0.0761093
0.0758892
0.0756766
0.0754708
0.0752711
0.0750768
0.074887
0.0747009
0.0745176
0.0743362
0.0741557
0.073975
0.0737932
0.0736092
0.0734218
0.07323
0.0730325
0.0728285
0.0726166
0.0723959
0.0721653
0.0719237
0.0716703
0.071404
0.071124
0.0708294
0.0705194
0.0701933
0.0698503
0.0694896
0.0691107
0.0687128
0.0682952
0.0678575
0.0673988
0.0669186
0.0664163
0.0658913
0.065343
0.0647709
0.0641745
0.0635531
0.0629064
0.0622339
0.061535
0.0608095
0.060057
0.0592771
0.0584695
0.057634
0.0567705
0.0558788
0.0549588
0.0540107
0.0530343
0.0520301
0.0509981
0.0499389
0.0488528
0.0477404
0.0466024
0.0454398
0.0442533
0.0430441
0.0418135
0.0405628
0.0392937
0.0380077
0.0367067
0.0353929
0.0340683
0.0327354
0.0313966
0.0300546
0.0287122
0.0273724
0.0260381
0.0247126
0.0233989
0.0221006
0.0208207
0.0195627
0.0183296
0.0171249
0.0159518
0.0148128
0.0137112
0.0126495
0.0116298
0.0106545
0.00972532
0.00884364
0.00801052
0.00722664
0.00649227
0.00580733
0.00517139
0.00458377
0.00404382
0.00355074
0.00310642
0.00271056
0.115867
0.115818
0.11574
0.115629
0.115483
0.115303
0.115089
0.114842
0.114562
0.114251
0.11391
0.11354
0.113141
0.112714
0.112262
0.111784
0.111282
0.110758
0.110212
0.109646
0.10906
0.108457
0.107838
0.107203
0.106554
0.105893
0.105221
0.104538
0.103847
0.103149
0.102445
0.101736
0.101023
0.100309
0.099593
0.0988775
0.0981634
0.0974519
0.0967439
0.0960405
0.0953428
0.0946518
0.0939683
0.0932932
0.0926273
0.0919715
0.0913263
0.0906926
0.0900709
0.0894617
0.0888656
0.0882829
0.0877142
0.0871596
0.0866196
0.0860942
0.0855836
0.0850881
0.0846075
0.084142
0.0836915
0.083256
0.0828352
0.0824292
0.0820376
0.0816603
0.081297
0.0809475
0.0806114
0.0802884
0.0799782
0.0796804
0.0793946
0.0791203
0.0788572
0.0786047
0.0783625
0.0781299
0.0779064
0.0776914
0.0774843
0.0772845
0.0770912
0.0769037
0.0767212
0.0765429
0.0763678
0.0761952
0.0760239
0.0758529
0.0756813
0.0755079
0.0753315
0.0751511
0.0749655
0.0747735
0.0745741
0.0743659
0.0741481
0.0739194
0.0736789
0.0734256
0.0731585
0.0728768
0.0725796
0.0722661
0.0719356
0.0715872
0.0712203
0.0708341
0.070428
0.0700012
0.0695531
0.0690831
0.0685905
0.0680747
0.067535
0.0669708
0.0663816
0.0657668
0.0651258
0.0644582
0.0637633
0.0630409
0.0622903
0.0615114
0.0607036
0.0598668
0.0590007
0.0581051
0.0571798
0.0562249
0.0552403
0.0542262
0.0531829
0.0521104
0.0510094
0.0498803
0.0487238
0.0475405
0.0463315
0.0450978
0.0438406
0.0425612
0.0412611
0.0399421
0.0386059
0.0372547
0.0358906
0.0345159
0.0331333
0.0317455
0.0303553
0.0289657
0.0275799
0.0262011
0.0248327
0.0234782
0.0221408
0.0208244
0.0195322
0.0182677
0.0170343
0.0158352
0.0146735
0.0135521
0.0124736
0.0114404
0.0104544
0.00951743
0.00863064
0.00779493
0.00701078
0.00627825
0.00559705
0.00496658
0.00438623
0.00385517
0.00337477
0.0029445
0.118821
0.11876
0.118671
0.118549
0.118392
0.118198
0.117971
0.117711
0.117418
0.117094
0.116741
0.116358
0.115947
0.11551
0.115047
0.11456
0.114049
0.113516
0.112962
0.112389
0.111797
0.111187
0.110562
0.109922
0.109268
0.108603
0.107926
0.10724
0.106545
0.105844
0.105136
0.104424
0.103709
0.102992
0.102274
0.101556
0.10084
0.100126
0.0994157
0.0987102
0.0980104
0.0973173
0.0966318
0.0959547
0.0952869
0.0946292
0.0939823
0.0933468
0.0927234
0.0921126
0.091515
0.090931
0.090361
0.0898053
0.0892643
0.0887381
0.0882269
0.0877308
0.08725
0.0867844
0.0863341
0.0858989
0.0854788
0.0850736
0.0846832
0.0843073
0.0839458
0.0835983
0.0832645
0.0829442
0.0826371
0.0823427
0.0820607
0.0817906
0.0815322
0.0812848
0.0810482
0.0808216
0.0806048
0.0803969
0.0801976
0.0800062
0.0798219
0.079644
0.0794719
0.0793047
0.0791414
0.0789812
0.0788231
0.0786661
0.0785091
0.078351
0.0781905
0.0780266
0.077858
0.0776835
0.0775019
0.077312
0.0771127
0.0769027
0.076681
0.0764465
0.0761982
0.0759353
0.0756567
0.0753616
0.0750492
0.0747187
0.0743693
0.0740003
0.0736108
0.0732002
0.0727677
0.0723127
0.0718343
0.0713319
0.0708048
0.0702524
0.0696739
0.0690688
0.0684364
0.067776
0.0670872
0.0663694
0.0656221
0.0648448
0.064037
0.0631985
0.0623288
0.0614277
0.060495
0.0595304
0.058534
0.0575058
0.0564459
0.0553545
0.0542319
0.0530785
0.051895
0.0506818
0.04944
0.0481705
0.0468743
0.0455529
0.0442076
0.0428401
0.0414523
0.0400461
0.0386239
0.0371879
0.0357407
0.0342852
0.0328244
0.0313612
0.0298991
0.0284414
0.0269917
0.0255537
0.0241311
0.0227277
0.0213472
0.0199935
0.0186702
0.017381
0.0161293
0.0149185
0.0137515
0.0126311
0.0115597
0.0105394
0.00957166
0.00865777
0.00779845
0.00699402
0.0062444
0.00554911
0.00490765
0.00431916
0.00378466
0.00330308
0.122764
0.122693
0.122594
0.12246
0.12229
0.122083
0.12184
0.121565
0.121257
0.120918
0.120549
0.120152
0.119727
0.119276
0.1188
0.118301
0.117778
0.117234
0.11667
0.116086
0.115485
0.114867
0.114234
0.113586
0.112926
0.112254
0.111571
0.110879
0.11018
0.109473
0.108761
0.108045
0.107325
0.106604
0.105882
0.10516
0.10444
0.103723
0.103009
0.1023
0.101597
0.100901
0.100212
0.0995318
0.098861
0.0982004
0.0975506
0.0969124
0.0962864
0.0956731
0.0950731
0.0944869
0.0939149
0.0933573
0.0928146
0.092287
0.0917746
0.0912775
0.090796
0.0903299
0.0898794
0.0894443
0.0890246
0.0886202
0.0882309
0.0878564
0.0874967
0.0871514
0.0868203
0.086503
0.0861993
0.0859089
0.0856313
0.0853662
0.0851132
0.0848719
0.0846419
0.0844226
0.0842137
0.0840146
0.0838246
0.0836433
0.08347
0.083304
0.0831446
0.0829909
0.0828421
0.0826973
0.0825556
0.0824158
0.0822769
0.0821377
0.081997
0.0818537
0.0817063
0.0815537
0.0813945
0.0812274
0.0810511
0.0808646
0.0806664
0.0804556
0.0802309
0.0799915
0.0797363
0.0794644
0.079175
0.078867
0.0785398
0.0781924
0.077824
0.0774339
0.0770212
0.076585
0.0761247
0.0756395
0.0751285
0.074591
0.0740263
0.0734336
0.0728121
0.0721613
0.0714803
0.0707686
0.0700255
0.0692505
0.0684429
0.0676024
0.0667284
0.0658205
0.0648785
0.0639019
0.0628907
0.0618447
0.060764
0.0596485
0.0584985
0.0573143
0.0560962
0.054845
0.0535612
0.0522459
0.0508999
0.0495244
0.048121
0.0466912
0.0452368
0.0437597
0.0422622
0.0407467
0.0392158
0.0376724
0.0361196
0.0345606
0.0329988
0.031438
0.0298819
0.0283344
0.0267997
0.0252818
0.023785
0.0223135
0.0208715
0.0194629
0.0180919
0.0167623
0.0154775
0.0142409
0.0130555
0.0119236
0.0108475
0.00982873
0.00886843
0.00796728
0.00712548
0.0063428
0.00561888
0.0049529
0.00434574
0.00379564
0.127726
0.127646
0.127535
0.127388
0.127204
0.126982
0.126724
0.126431
0.126106
0.12575
0.125365
0.12495
0.124509
0.124042
0.123551
0.123036
0.122499
0.121942
0.121365
0.120769
0.120156
0.119527
0.118883
0.118226
0.117556
0.116876
0.116185
0.115485
0.114778
0.114064
0.113345
0.112623
0.111897
0.11117
0.110442
0.109715
0.108989
0.108267
0.107548
0.106834
0.106126
0.105425
0.104732
0.104047
0.103372
0.102707
0.102053
0.101411
0.100782
0.100165
0.0995613
0.0989718
0.0983967
0.0978364
0.0972911
0.0967611
0.0962467
0.0957479
0.0952649
0.0947977
0.0943463
0.0939108
0.093491
0.0930869
0.0926982
0.0923249
0.0919666
0.0916233
0.0912946
0.0909803
0.09068
0.0903935
0.0901205
0.0898605
0.0896132
0.0893783
0.0891553
0.0889439
0.0887435
0.0885537
0.088374
0.0882039
0.0880426
0.0878897
0.0877443
0.0876058
0.0874732
0.0873457
0.0872223
0.087102
0.0869836
0.086866
0.0867478
0.0866279
0.0865048
0.0863772
0.0862437
0.0861028
0.0859532
0.0857935
0.0856226
0.085439
0.0852416
0.0850294
0.0848013
0.0845564
0.0842935
0.0840118
0.0837103
0.0833882
0.0830445
0.0826783
0.0822887
0.0818748
0.0814358
0.0809708
0.0804788
0.0799591
0.0794107
0.0788327
0.0782244
0.0775849
0.0769135
0.0762093
0.0754715
0.0746995
0.0738926
0.0730501
0.0721715
0.0712561
0.0703035
0.0693132
0.0682849
0.0672184
0.0661134
0.0649699
0.0637878
0.0625674
0.0613089
0.0600127
0.0586795
0.0573098
0.0559047
0.0544651
0.0529925
0.0514883
0.0499541
0.048392
0.0468042
0.045193
0.0435611
0.0419114
0.0402473
0.0385719
0.0368889
0.0352024
0.0335162
0.0318348
0.0301625
0.028504
0.0268639
0.025247
0.023658
0.0221015
0.0205823
0.0191047
0.017673
0.0162911
0.0149627
0.0136909
0.0124784
0.0113274
0.0102396
0.00921604
0.00825743
0.00736381
0.00653511
0.00577058
0.00507117
0.00443445
0.133737
0.133647
0.133525
0.133365
0.133166
0.132927
0.132652
0.132342
0.131999
0.131624
0.131219
0.130786
0.130327
0.129841
0.129332
0.1288
0.128246
0.127673
0.12708
0.126469
0.125842
0.1252
0.124543
0.123873
0.123192
0.122499
0.121798
0.121088
0.120371
0.119648
0.11892
0.118188
0.117454
0.116719
0.115983
0.115249
0.114516
0.113786
0.11306
0.11234
0.111625
0.110918
0.110218
0.109528
0.108847
0.108176
0.107517
0.106869
0.106234
0.105612
0.105004
0.10441
0.103831
0.103267
0.102718
0.102184
0.101667
0.101165
0.10068
0.10021
0.0997571
0.0993202
0.0988994
0.0984947
0.0981059
0.0977328
0.0973753
0.0970332
0.0967063
0.0963942
0.0960967
0.0958136
0.0955445
0.0952891
0.0950471
0.0948181
0.0946019
0.0943979
0.0942059
0.0940253
0.0938557
0.0936967
0.0935476
0.0934079
0.0932769
0.0931539
0.093038
0.0929285
0.0928243
0.0927245
0.0926277
0.0925329
0.0924387
0.0923438
0.0922466
0.0921458
0.0920398
0.0919271
0.0918063
0.0916758
0.0915341
0.0913801
0.0912124
0.0910298
0.0908313
0.0906157
0.0903819
0.090129
0.0898559
0.0895616
0.089245
0.0889053
0.0885414
0.0881523
0.0877369
0.0872945
0.0868238
0.086324
0.085794
0.0852328
0.0846395
0.0840131
0.0833527
0.0826573
0.0819261
0.0811581
0.0803525
0.0795085
0.0786253
0.0777021
0.0767384
0.0757335
0.0746868
0.0735979
0.0724664
0.0712921
0.0700748
0.0688143
0.0675109
0.0661647
0.064776
0.0633456
0.061874
0.0603622
0.0588113
0.0572227
0.0555981
0.0539391
0.0522481
0.0505274
0.0487795
0.0470075
0.0452148
0.0434047
0.0415812
0.0397483
0.0379106
0.0360725
0.034239
0.0324151
0.0306061
0.0288173
0.0270541
0.0253219
0.0236261
0.0219718
0.0203642
0.018808
0.0173075
0.0158669
0.0144894
0.0131781
0.0119353
0.0107627
0.00966148
0.00863222
0.00767517
0.0067898
0.00597727
0.00523452
0.14084
0.14074
0.140604
0.14043
0.140214
0.139959
0.139665
0.139335
0.138972
0.138577
0.138152
0.137698
0.137217
0.136712
0.136182
0.13563
0.135057
0.134464
0.133853
0.133224
0.13258
0.131921
0.131248
0.130563
0.129867
0.129161
0.128445
0.127722
0.126992
0.126257
0.125518
0.124775
0.12403
0.123284
0.122538
0.121794
0.121052
0.120312
0.119578
0.118848
0.118125
0.117409
0.116702
0.116003
0.115314
0.114636
0.11397
0.113315
0.112673
0.112045
0.111431
0.110831
0.110246
0.109676
0.109122
0.108583
0.108061
0.107555
0.107066
0.106593
0.106137
0.105697
0.105274
0.104868
0.104477
0.104103
0.103745
0.103403
0.103076
0.102765
0.102469
0.102188
0.101922
0.101669
0.101431
0.101207
0.100996
0.100799
0.100614
0.100441
0.10028
0.100131
0.0999934
0.0998659
0.0997484
0.09964
0.0995402
0.0994479
0.0993624
0.0992824
0.099207
0.0991347
0.0990643
0.0989944
0.0989233
0.0988495
0.0987714
0.0986873
0.0985956
0.0984947
0.0983831
0.0982593
0.0981221
0.09797
0.097802
0.0976169
0.0974134
0.0971904
0.0969469
0.0966818
0.0963938
0.096082
0.0957452
0.0953823
0.0949922
0.0945738
0.0941259
0.0936476
0.0931375
0.0925946
0.0920177
0.0914058
0.0907578
0.0900725
0.0893488
0.0885858
0.0877824
0.0869376
0.0860504
0.0851199
0.0841452
0.0831255
0.08206
0.080948
0.0797891
0.0785826
0.0773281
0.0760254
0.0746742
0.0732747
0.0718269
0.0703311
0.0687879
0.067198
0.0655622
0.063882
0.0621584
0.0603935
0.058589
0.0567475
0.0548714
0.0529638
0.051028
0.0490675
0.0470866
0.0450894
0.0430808
0.0410656
0.0390492
0.0370372
0.0350354
0.0330499
0.0310866
0.0291519
0.027252
0.0253929
0.0235807
0.0218211
0.0201194
0.0184806
0.0169091
0.0154086
0.0139825
0.0126331
0.0113624
0.0101714
0.0090611
0.00803115
0.00708313
0.00621342
0.149082
0.14897
0.14882
0.148629
0.148396
0.148121
0.147807
0.147457
0.147072
0.146654
0.146206
0.145729
0.145225
0.144696
0.144143
0.143568
0.142973
0.142358
0.141725
0.141076
0.140411
0.139732
0.13904
0.138336
0.137622
0.136898
0.136166
0.135426
0.134681
0.13393
0.133176
0.132419
0.131661
0.130901
0.130143
0.129386
0.128631
0.12788
0.127134
0.126394
0.12566
0.124933
0.124216
0.123507
0.122809
0.122121
0.121445
0.120782
0.120131
0.119495
0.118872
0.118264
0.117672
0.117095
0.116533
0.115988
0.11546
0.114948
0.114453
0.113975
0.113514
0.113069
0.112642
0.112232
0.111838
0.111461
0.1111
0.110756
0.110428
0.110115
0.109819
0.109537
0.109271
0.10902
0.108784
0.108562
0.108354
0.10816
0.10798
0.107813
0.107659
0.107518
0.107389
0.107271
0.107165
0.107069
0.106982
0.106905
0.106836
0.106774
0.106718
0.106666
0.106618
0.106571
0.106525
0.106476
0.106424
0.106368
0.106304
0.106231
0.106148
0.106054
0.105946
0.105824
0.105686
0.105531
0.105357
0.105164
0.10495
0.104714
0.104454
0.10417
0.103861
0.103525
0.10316
0.102767
0.102342
0.101886
0.101397
0.100873
0.100313
0.0997168
0.0990821
0.0984078
0.0976928
0.0969359
0.0961356
0.095291
0.0944008
0.0934637
0.0924788
0.091445
0.0903612
0.0892266
0.0880403
0.0868016
0.0855096
0.084164
0.0827642
0.0813099
0.0798011
0.0782378
0.0766202
0.0749487
0.0732241
0.0714472
0.0696193
0.0677419
0.0658169
0.0638463
0.0618328
0.0597792
0.0576888
0.0555655
0.0534132
0.0512366
0.0490405
0.0468304
0.0446121
0.0423915
0.0401752
0.0379699
0.0357825
0.03362
0.0314897
0.0293986
0.0273538
0.0253622
0.0234302
0.0215638
0.0197687
0.0180496
0.0164109
0.014856
0.0133876
0.0120076
0.0107176
0.00951784
0.00841036
0.00739103
0.158516
0.158391
0.158225
0.158016
0.157763
0.157467
0.157131
0.156757
0.156347
0.155905
0.155431
0.154928
0.154398
0.153842
0.153263
0.152662
0.15204
0.151399
0.150741
0.150066
0.149377
0.148674
0.147959
0.147233
0.146497
0.145752
0.144999
0.14424
0.143475
0.142706
0.141934
0.14116
0.140384
0.139609
0.138834
0.138062
0.137292
0.136527
0.135767
0.135012
0.134265
0.133526
0.132795
0.132074
0.131364
0.130665
0.129978
0.129303
0.128642
0.127995
0.127362
0.126744
0.126142
0.125555
0.124985
0.124431
0.123894
0.123374
0.122871
0.122385
0.121916
0.121465
0.121031
0.120614
0.120214
0.119831
0.119465
0.119116
0.118783
0.118467
0.118166
0.117882
0.117613
0.11736
0.117122
0.116899
0.116691
0.116498
0.116319
0.116154
0.116002
0.115865
0.115741
0.115629
0.11553
0.115442
0.115366
0.1153
0.115244
0.115196
0.115155
0.11512
0.11509
0.115063
0.115038
0.115011
0.114982
0.114949
0.11491
0.114863
0.114806
0.114738
0.114657
0.114562
0.114451
0.114323
0.114178
0.114012
0.113826
0.113617
0.113385
0.113128
0.112845
0.112534
0.112195
0.111825
0.111424
0.11099
0.110521
0.110016
0.109474
0.108894
0.108273
0.10761
0.106905
0.106155
0.105359
0.104515
0.103623
0.102681
0.101687
0.10064
0.0995397
0.0983837
0.0971714
0.0959016
0.0945733
0.0931857
0.091738
0.0902297
0.0886602
0.0870292
0.0853368
0.0835829
0.081768
0.0798927
0.0779578
0.0759647
0.0739149
0.0718103
0.0696534
0.0674468
0.0651939
0.0628982
0.0605641
0.0581961
0.0557995
0.0533798
0.0509433
0.0484966
0.0460467
0.043601
0.0411674
0.0387538
0.0363684
0.0340194
0.0317151
0.0294636
0.0272725
0.0251494
0.023101
0.0211334
0.0192523
0.0174621
0.0157668
0.0141692
0.0126717
0.0112752
0.00998264
0.00878926
0.169204
0.169064
0.16888
0.16865
0.168374
0.168054
0.167692
0.167291
0.166854
0.166383
0.16588
0.165347
0.164786
0.1642
0.16359
0.162958
0.162305
0.161634
0.160946
0.160242
0.159524
0.158793
0.15805
0.157297
0.156535
0.155764
0.154987
0.154204
0.153416
0.152625
0.151831
0.151035
0.15024
0.149444
0.148651
0.14786
0.147072
0.146289
0.145512
0.144742
0.143978
0.143223
0.142477
0.141742
0.141017
0.140303
0.139602
0.138914
0.13824
0.137579
0.136934
0.136303
0.135689
0.13509
0.134508
0.133943
0.133394
0.132863
0.132349
0.131853
0.131374
0.130912
0.130468
0.130041
0.129632
0.12924
0.128865
0.128507
0.128166
0.127841
0.127533
0.127241
0.126965
0.126706
0.126461
0.126233
0.12602
0.125822
0.125639
0.125471
0.125318
0.125179
0.125054
0.124943
0.124846
0.124762
0.12469
0.124629
0.12458
0.12454
0.12451
0.124487
0.124469
0.124456
0.124446
0.124436
0.124425
0.12441
0.12439
0.124363
0.124327
0.12428
0.124221
0.124149
0.124061
0.123958
0.123836
0.123694
0.123532
0.123348
0.12314
0.122907
0.122648
0.122361
0.122044
0.121697
0.121317
0.120903
0.120454
0.119968
0.119443
0.118878
0.118271
0.11762
0.116924
0.116182
0.115391
0.11455
0.113657
0.112711
0.11171
0.110653
0.109537
0.108362
0.107126
0.105827
0.104465
0.103038
0.101545
0.0999848
0.0983569
0.0966605
0.0948951
0.0930605
0.0911567
0.0891838
0.0871424
0.0850333
0.082858
0.0806178
0.078315
0.0759521
0.0735321
0.0710586
0.0685357
0.0659682
0.0633613
0.0607209
0.0580535
0.0553662
0.0526667
0.049963
0.0472639
0.0445781
0.041915
0.0392841
0.0366949
0.0341567
0.0316789
0.0292702
0.026939
0.024693
0.0225391
0.0204833
0.0185308
0.0166858
0.0149517
0.0133302
0.0118253
0.0104317
0.181212
0.181055
0.180849
0.180594
0.180292
0.179944
0.179553
0.179121
0.178651
0.178146
0.177609
0.17704
0.176444
0.175822
0.175175
0.174507
0.173818
0.173111
0.172388
0.171649
0.170897
0.170132
0.169357
0.168572
0.167778
0.166977
0.166171
0.165359
0.164544
0.163726
0.162906
0.162086
0.161266
0.160447
0.159631
0.158818
0.158009
0.157205
0.156408
0.155618
0.154835
0.154062
0.153298
0.152544
0.151802
0.151072
0.150354
0.149649
0.148959
0.148282
0.147621
0.146975
0.146345
0.145732
0.145135
0.144554
0.143991
0.143445
0.142917
0.142406
0.141913
0.141437
0.140978
0.140538
0.140115
0.139709
0.13932
0.138948
0.138594
0.138256
0.137935
0.13763
0.137342
0.13707
0.136814
0.136574
0.13635
0.136141
0.135948
0.135771
0.135609
0.135462
0.13533
0.135213
0.13511
0.135022
0.134947
0.134885
0.134836
0.134797
0.134769
0.13475
0.134738
0.134731
0.134728
0.134727
0.134726
0.134722
0.134714
0.1347
0.134678
0.134646
0.134603
0.134547
0.134476
0.13439
0.134287
0.134164
0.134021
0.133856
0.133668
0.133455
0.133216
0.132948
0.132651
0.132323
0.131962
0.131566
0.131135
0.130665
0.130156
0.129605
0.129011
0.128371
0.127686
0.126951
0.126166
0.125328
0.124436
0.123488
0.122481
0.121415
0.120287
0.119096
0.117839
0.116515
0.115123
0.11366
0.112125
0.110517
0.108835
0.107078
0.105244
0.103332
0.101343
0.0992767
0.0971321
0.0949102
0.0926117
0.0902379
0.0877904
0.0852714
0.0826836
0.0800305
0.0773159
0.0745445
0.0717216
0.0688532
0.0659461
0.0630077
0.0600461
0.0570701
0.0540892
0.0511133
0.0481527
0.0452181
0.0423205
0.0394707
0.0366796
0.0339576
0.0313148
0.0287606
0.0263036
0.0239515
0.0217111
0.019588
0.017587
0.0157108
0.0139646
0.0123429
0.194612
0.194435
0.194204
0.193921
0.193587
0.193205
0.192779
0.192309
0.191801
0.191256
0.190676
0.190066
0.189426
0.188761
0.188071
0.187359
0.186627
0.185877
0.185112
0.184331
0.183538
0.182734
0.18192
0.181097
0.180267
0.17943
0.178589
0.177744
0.176897
0.176047
0.175197
0.174347
0.173499
0.172653
0.17181
0.170971
0.170137
0.16931
0.168489
0.167676
0.166871
0.166075
0.16529
0.164516
0.163753
0.163002
0.162264
0.16154
0.16083
0.160135
0.159454
0.158789
0.15814
0.157508
0.156892
0.156293
0.15571
0.155146
0.154598
0.154068
0.153555
0.15306
0.152583
0.152123
0.15168
0.151255
0.150847
0.150456
0.150081
0.149724
0.149384
0.14906
0.148752
0.148461
0.148186
0.147927
0.147684
0.147457
0.147246
0.147052
0.146873
0.146709
0.146562
0.14643
0.146314
0.146213
0.146126
0.146054
0.145995
0.145948
0.145913
0.145888
0.145872
0.145862
0.145858
0.145856
0.145855
0.145853
0.145847
0.145837
0.14582
0.145794
0.145758
0.14571
0.145649
0.145573
0.14548
0.14537
0.145239
0.145088
0.144913
0.144714
0.144489
0.144236
0.143954
0.14364
0.143294
0.142913
0.142496
0.14204
0.141543
0.141005
0.140422
0.139793
0.139116
0.138389
0.137609
0.136776
0.135885
0.134936
0.133927
0.132854
0.131717
0.130512
0.129239
0.127894
0.126475
0.124982
0.123411
0.121761
0.12003
0.118217
0.116321
0.114339
0.112272
0.110118
0.107876
0.105547
0.103131
0.100629
0.0980415
0.0953705
0.0926183
0.0897878
0.0868826
0.0839073
0.0808669
0.0777675
0.0746158
0.0714197
0.0681876
0.064929
0.0616539
0.0583732
0.0550984
0.0518415
0.0486147
0.0454305
0.0423015
0.03924
0.0362579
0.0333666
0.0305766
0.0278976
0.0253381
0.0229056
0.0206065
0.0184448
0.0164274
0.0145482
0.209483
0.209282
0.209021
0.208704
0.208332
0.20791
0.207439
0.206924
0.206368
0.205773
0.205142
0.20448
0.203788
0.203069
0.202326
0.201562
0.200778
0.199977
0.199161
0.198331
0.197489
0.196638
0.195778
0.194911
0.194037
0.193159
0.192278
0.191394
0.190508
0.189623
0.188737
0.187854
0.186972
0.186094
0.185221
0.184352
0.183489
0.182634
0.181785
0.180945
0.180115
0.179294
0.178484
0.177684
0.176897
0.176123
0.175361
0.174614
0.17388
0.173161
0.172457
0.171769
0.171097
0.17044
0.169801
0.169178
0.168571
0.167982
0.16741
0.166855
0.166317
0.165797
0.165294
0.164808
0.164339
0.163887
0.163453
0.163035
0.162633
0.162249
0.161881
0.161529
0.161194
0.160875
0.160573
0.160286
0.160016
0.159762
0.159524
0.159302
0.159097
0.158908
0.158735
0.158579
0.158438
0.158314
0.158205
0.158112
0.158032
0.157967
0.157914
0.157873
0.157841
0.157817
0.157799
0.157785
0.157773
0.157761
0.157748
0.15773
0.157707
0.157677
0.157638
0.157589
0.157528
0.157452
0.157362
0.157254
0.157128
0.156981
0.156813
0.156621
0.156403
0.156158
0.155885
0.155581
0.155244
0.154872
0.154465
0.154019
0.153532
0.153003
0.152429
0.151808
0.151139
0.150418
0.149644
0.148814
0.147927
0.146978
0.145967
0.144891
0.143747
0.142532
0.141246
0.139884
0.138445
0.136926
0.135326
0.13364
0.131868
0.130008
0.128057
0.126013
0.123876
0.121643
0.119313
0.116886
0.114361
0.111739
0.10902
0.106205
0.103295
0.100293
0.0972028
0.0940277
0.0907727
0.0874436
0.0840473
0.0805914
0.0770848
0.0735374
0.0699598
0.0663638
0.0627619
0.0591673
0.0555937
0.0520553
0.0485665
0.0451414
0.0417941
0.0385381
0.0353861
0.0323501
0.0294407
0.0266673
0.0240385
0.0215598
0.0192399
0.0170726
0.225911
0.225683
0.225386
0.225026
0.224608
0.224134
0.223608
0.223035
0.222417
0.22176
0.221065
0.220338
0.21958
0.218796
0.217988
0.21716
0.216312
0.215449
0.214573
0.213684
0.212785
0.211878
0.210964
0.210045
0.209121
0.208194
0.207266
0.206337
0.205408
0.20448
0.203554
0.202631
0.201712
0.200798
0.199889
0.198986
0.19809
0.197202
0.196322
0.195451
0.19459
0.19374
0.1929
0.192072
0.191257
0.190454
0.189664
0.188888
0.188126
0.187379
0.186647
0.18593
0.185228
0.184543
0.183873
0.18322
0.182583
0.181963
0.181359
0.180772
0.180202
0.179649
0.179112
0.178593