/*--------------------------------*- C++ -*----------------------------------*\
| =========                 |                                                 |
| \\      /  F ield         | OpenFOAM: The Open Source CFD Toolbox           |
|  \\    /   O peration     | Version:  4.1                                   |
|   \\  /    A nd           | Web:      www.OpenFOAM.org                      |
|    \\/     M anipulation  |                                                 |
\*---------------------------------------------------------------------------*/
FoamFile
{
    version     2.0;
    format      ascii;
    class       volScalarField;
    location    "0.005";
    object      T;
}
// * * * * * * * * * * * * * * * * * * * * * * * * * * * * * * * * * * * * * //

dimensions      [0 0 0 1 0 0 0];

internalField   nonuniform List<scalar> 
12225
(
1.11552
1.23317
1.29917
1.34126
1.36974
1.38851
1.40119
1.41004
1.41643
1.42117
1.42478
1.42761
1.42987
1.43175
1.43332
1.4348
1.43599
1.43535
0.860947
0.707839
0.632408
0.594821
0.576427
0.569644
0.569414
0.572758
0.577972
0.584078
0.590514
0.596953
0.603209
0.609172
0.614802
0.619995
0.624975
0.6289
1.03458
1.08006
1.10414
1.11423
1.11556
1.11189
1.10559
1.09802
1.08996
1.08186
1.07398
1.06648
1.05942
1.05283
1.04675
1.04112
1.03619
1.03151
1.00165
0.998855
0.992981
0.988432
0.986044
0.98539
0.985929
0.987199
0.988859
0.990685
0.992536
0.994326
0.995998
0.997533
0.998926
1.00016
1.00129
1.00234
1.00023
1.00039
1.00026
1.00043
1.00067
1.0008
1.00084
1.0008
1.00072
1.00062
1.00052
1.00042
1.00033
1.00026
1.00021
1.00018
1.0002
1.00021
0.999584
0.999244
0.998899
0.998714
0.99862
0.998535
0.998453
0.99839
0.998342
0.998304
0.998274
0.998247
0.99822
0.998198
0.998176
0.998158
0.998164
0.998156
0.999929
1.00011
1.00016
1.00019
1.00023
1.00025
1.00026
1.00026
1.00026
1.00026
1.00026
1.00025
1.00024
1.00023
1.00021
1.0002
1.00019
1.00019
0.999971
1.00007
1.00006
1.00002
1.00001
1.00001
1.00001
1
1
1.00001
1.00001
1.00001
1.00002
1.00002
1.00001
1.00001
1.00002
1.00004
0.999979
1.00004
1.00003
1.00002
1.00002
1.00002
1.00002
1.00002
1.00002
1.00003
1.00003
1.00003
1.00003
1.00002
1.00002
1.00002
1.00002
1.00003
0.999978
1.00002
1.00001
0.999999
0.999999
1
0.999999
0.999996
0.999996
0.999998
0.999998
0.999999
1
0.999992
0.999982
0.999984
0.999984
1
0.999985
1.00001
1.00001
1
1
0.999997
0.999996
0.999997
1
1
1
1
0.999996
0.999994
0.999989
0.999986
0.999986
1.00001
0.999988
1.00001
1.00001
0.999999
0.999998
0.999999
0.999998
0.999999
0.999998
0.999998
0.999999
1
0.999998
0.999992
0.999987
0.999988
0.999985
1.00001
0.999989
1.00001
1.00001
1
0.999999
0.999999
1
1
0.999999
1
1.00001
1
0.999998
0.999993
0.999986
0.999986
0.999983
1
0.999991
1
1.00001
1.00001
1.00001
1
0.999997
0.999997
0.999999
1
0.999999
1
0.999997
0.99999
0.999984
0.999981
0.999983
1
0.999993
1
1.00001
1.00001
1
1
0.999997
0.999998
0.999999
1
1
1
0.999999
0.999993
0.999982
0.999983
0.999982
1
0.999994
1
1.00001
1
1
1
1
0.999999
0.999999
0.999998
1
1
1
0.999994
0.999986
0.999982
0.999982
1
0.999993
1
1
1
1
1
1
1
0.999999
1
1
1
0.999998
0.999992
0.999988
0.999987
0.999987
1
0.999995
1
1
1.00001
1.00001
1.00001
1
1
1
1
1.00001
1.00001
1.00001
0.999999
0.999989
0.999986
0.999986
1.00001
0.999995
1
1
1
1
1
1.00001
1
0.999999
1
1
1
0.999996
0.999989
0.999985
0.999982
0.999981
1
0.999992
1
1
1
1
1
1.00001
1.00001
1.00001
1
1.00001
1.00001
1.00001
1
0.999999
0.999997
0.999998
1.00002
0.999991
0.999999
1.00001
1
0.999996
0.999991
0.999991
0.999987
0.999986
0.999986
0.999984
0.999982
0.999975
0.999966
0.999959
0.999957
0.999954
0.999971
0.999988
1
1.00001
1.00001
1.00002
1.00002
1.00003
1.00004
1.00004
1.00005
1.00006
1.00007
1.00007
1.00007
1.00006
1.00007
1.00007
1.00009
0.999982
1
1
0.999974
0.999943
0.999921
0.999899
0.999877
0.99986
0.999843
0.999831
0.999818
0.999801
0.999788
0.999772
0.999764
0.99976
0.999772
0.999965
1.00007
1.00018
1.00024
1.0003
1.00037
1.00043
1.00049
1.00054
1.00058
1.00062
1.00065
1.00067
1.00069
1.0007
1.0007
1.00071
1.00074
0.999753
0.999568
0.999366
0.999131
0.998913
0.998704
0.998508
0.998341
0.998201
0.998089
0.998005
0.997939
0.997888
0.99785
0.997825
0.997813
0.997811
0.997818
0.999992
1.00043
1.00095
1.00167
1.00247
1.00316
1.00368
1.00405
1.00429
1.00442
1.00447
1.00446
1.0044
1.00431
1.0042
1.00408
1.00394
1.00387
0.999945
0.996247
0.990161
0.98452
0.980273
0.977358
0.975526
0.974519
0.974115
0.974129
0.974435
0.974934
0.975555
0.976252
0.976993
0.977748
0.978539
0.9792
1.0214
1.05634
1.0798
1.09471
1.10362
1.10848
1.11068
1.11118
1.11056
1.10922
1.10744
1.10538
1.10317
1.10089
1.0986
1.09636
1.09416
1.09224
0.922802
0.82784
0.774466
0.743959
0.725618
0.714657
0.70844
0.705217
0.703881
0.703741
0.70436
0.705455
0.706839
0.70839
0.71003
0.711693
0.713396
0.714955
1.06291
1.12901
1.16726
1.19166
1.20826
1.21975
1.22781
1.23361
1.2379
1.24114
1.24365
1.24564
1.24724
1.24856
1.24968
1.25062
1.25159
1.25222
-8.80128e-48
-6.38825e-49
-7.52747e-50
-1.95944e-49
-9.28639e-52
3.23781e-51
5.07897e-51
5.46279e-51
4.43934e-51
2.9283e-51
1.64296e-51
9.32994e-52
8.76997e-52
9.83616e-52
9.20421e-52
7.17131e-52
4.88865e-52
3.0282e-52
1.74796e-52
9.55159e-53
4.99361e-53
2.51517e-53
1.22577e-53
5.78856e-54
2.64766e-54
1.16558e-54
4.75541e-55
1.40063e-55
-4.25105e-56
-1.36369e-55
-1.56336e-55
-1.32115e-55
-9.43124e-56
-6.03755e-56
-3.58282e-56
-2.01099e-56
-1.0813e-56
-5.61546e-57
-2.83123e-57
-1.3902e-57
-6.65883e-58
-3.11253e-58
-1.419e-58
-6.30419e-59
-2.73507e-59
-1.18237e-59
-5.54302e-60
-3.30428e-60
-2.52648e-60
-2.02199e-60
-1.4856e-60
-9.74509e-61
-5.75452e-61
-3.10173e-61
-1.54367e-61
-7.14554e-62
-3.08038e-62
-1.21906e-62
-4.08917e-63
-6.65042e-64
6.82532e-64
1.00238e-63
8.18809e-64
5.04761e-64
2.54761e-64
1.09715e-64
4.19969e-65
1.5537e-65
6.30707e-66
2.71257e-66
8.09629e-67
-3.01389e-67
-9.01724e-67
-1.16438e-66
-1.79061e-66
-7.22351e-66
-4.30541e-65
-2.49822e-64
-1.33934e-63
-6.48014e-63
-2.66568e-62
-7.45689e-62
1.01268e-61
3.89635e-60
4.17976e-59
3.46334e-58
2.52493e-57
1.6897e-56
1.0549e-55
6.16451e-55
3.34605e-54
1.64611e-53
6.86556e-53
1.87472e-52
-4.18283e-52
-1.23438e-50
-1.3144e-49
-1.08372e-48
-7.70191e-48
-4.83146e-47
-2.64001e-46
-1.17901e-45
-3.39795e-45
-6.9761e-45
-1.06348e-44
-1.17966e-44
-7.67745e-45
3.18007e-45
1.99013e-44
3.93976e-44
5.74916e-44
7.04124e-44
7.5956e-44
7.3908e-44
6.57321e-44
5.38209e-44
4.06836e-44
2.83434e-44
1.80611e-44
1.03279e-44
5.05694e-45
1.82292e-45
8.01794e-47
-6.87779e-46
-8.91934e-46
-8.18216e-46
-6.42015e-46
-4.5683e-46
-3.02937e-46
-1.89544e-46
-1.12899e-46
-6.43967e-47
-3.53257e-47
-1.86979e-47
-9.573e-48
-4.75259e-48
-2.29112e-48
-1.07426e-48
-4.90625e-49
-2.18555e-49
-9.51206e-50
-4.04903e-50
-1.68654e-50
-6.88125e-51
-2.75079e-51
-1.08342e-51
-4.19301e-52
-1.59577e-52
-5.97848e-53
-2.2033e-53
-7.99452e-54
-2.85659e-54
-1.00867e-54
-3.5096e-55
-1.20366e-55
-4.08275e-56
-1.36493e-56
-4.50057e-57
-1.46155e-57
-4.68137e-58
-1.48586e-58
-4.6437e-59
-1.43058e-59
-4.35648e-60
-1.29e-60
-3.72829e-61
-1.06508e-61
-3.01309e-62
-8.43771e-63
-2.33745e-63
-6.39887e-64
-1.72779e-64
-4.58638e-65
-1.18952e-65
-2.98316e-66
-7.07925e-67
-1.53554e-67
-2.7512e-68
-3.41394e-69
-4.83429e-71
1.30632e-46
-1.72494e-46
3.62191e-47
-1.46067e-48
-6.8628e-48
-1.207e-47
-1.3828e-47
-1.20145e-47
-8.56771e-48
-5.19504e-48
-2.74535e-48
-1.48533e-48
-1.34e-48
-1.46295e-48
-1.34533e-48
-1.03665e-48
-7.0237e-49
-4.34194e-49
-2.50988e-49
-1.37752e-49
-7.25126e-50
-3.68521e-50
-1.81551e-50
-8.68071e-51
-4.02661e-51
-1.80264e-51
-7.56094e-52
-2.45197e-52
3.53876e-53
1.8729e-52
2.29368e-52
2.01189e-52
1.47757e-52
9.69055e-53
5.87743e-53
3.36668e-53
1.84566e-53
9.76655e-54
5.01554e-54
2.50798e-54
1.2233e-54
5.82339e-55
2.70425e-55
1.22374e-55
5.40018e-56
2.35674e-56
1.09162e-56
6.31018e-57
4.79209e-57
3.91985e-57
2.96824e-57
2.00594e-57
1.21774e-57
6.73561e-58
3.43613e-58
1.62989e-58
7.20937e-59
2.94729e-59
1.05253e-59
2.32223e-60
-1.09627e-60
-2.1241e-60
-1.8876e-60
-1.2303e-60
-6.49899e-61
-2.91187e-61
-1.1508e-61
-4.3436e-62
-1.80164e-62
-8.26878e-63
-3.05535e-63
1.39214e-64
2.02718e-63
2.78982e-63
2.30371e-63
6.04837e-64
-3.74348e-63
-2.24648e-62
-1.09352e-61
-4.47146e-61
-1.19489e-60
2.42303e-60
7.09225e-59
7.24986e-58
5.73614e-57
3.94046e-56
2.4302e-55
1.352e-54
6.66725e-54
2.75011e-53
7.63674e-53
-8.54559e-53
-3.40197e-51
-3.31401e-50
-2.37766e-49
-1.41558e-48
-7.10075e-48
-2.84784e-47
-6.93025e-47
1.86478e-46
4.17342e-45
3.80418e-44
1.98877e-43
6.43044e-43
1.50045e-42
2.76165e-42
4.22568e-42
5.55315e-42
6.39594e-42
6.53104e-42
5.9334e-42
4.76461e-42
3.29793e-42
1.82206e-42
5.63272e-43
-3.53192e-43
-9.02452e-43
-1.13372e-42
-1.13458e-42
-9.9672e-43
-7.98342e-43
-5.94178e-43
-4.15429e-43
-2.74729e-43
-1.72611e-43
-1.03334e-43
-5.90387e-44
-3.22098e-44
-1.67782e-44
-8.32849e-45
-3.92613e-45
-1.74681e-45
-7.25261e-46
-2.7495e-46
-9.06316e-47
-2.18569e-47
-1.68995e-49
4.48162e-48
4.0117e-48
2.61598e-48
1.47728e-48
7.63013e-49
3.69783e-49
1.70311e-49
7.50732e-50
3.19979e-50
1.31719e-50
5.24813e-51
2.02703e-51
7.65376e-52
2.80941e-52
1.00445e-52
3.49489e-53
1.18309e-53
3.8913e-54
1.25843e-54
3.95972e-55
1.21274e-55
3.60512e-56
1.0369e-56
2.89597e-57
7.73532e-58
1.97402e-58
4.73673e-59
1.02055e-59
1.78432e-60
1.59157e-61
-5.82846e-62
-4.63778e-62
-2.15177e-62
-8.37664e-63
-2.97201e-63
-9.91506e-64
-3.15062e-64
-9.56325e-65
-2.75264e-65
-7.37361e-66
-1.74033e-66
-3.26151e-67
-2.67423e-68
2.43205e-44
1.44168e-46
7.07219e-46
6.38716e-45
1.37576e-44
1.73033e-44
1.6124e-44
1.22189e-44
7.9345e-45
4.50377e-45
2.26571e-45
1.1683e-45
1.00926e-45
1.07888e-45
9.8152e-46
7.51924e-46
5.08335e-46
3.14523e-46
1.8247e-46
1.00749e-46
5.34653e-47
2.74424e-47
1.36761e-47
6.62459e-48
3.11759e-48
1.41946e-48
6.1133e-49
2.15303e-49
-3.65186e-51
-1.28018e-49
-1.69905e-49
-1.5533e-49
-1.17584e-49
-7.90845e-50
-4.90479e-50
-2.86775e-50
-1.60281e-50
-8.63997e-51
-4.51755e-51
-2.2992e-51
-1.14123e-51
-5.52829e-52
-2.6125e-52
-1.20305e-52
-5.39658e-53
-2.37911e-53
-1.09034e-53
-6.08359e-54
-4.55008e-54
-3.79366e-54
-2.96248e-54
-2.0651e-54
-1.29035e-54
-7.33172e-55
-3.83717e-55
-1.86631e-55
-8.47107e-56
-3.57116e-56
-1.34489e-56
-3.60035e-57
6.9777e-58
2.2197e-57
2.17562e-57
1.50577e-57
8.34452e-58
3.89683e-58
1.59257e-58
6.12809e-59
2.57625e-59
1.24085e-59
5.28049e-60
7.39492e-61
-2.17917e-60
-3.76077e-60
-3.68564e-60
-2.24339e-60
-8.89664e-61
-4.18983e-61
2.41412e-61
1.9373e-59
2.42569e-58
2.19578e-57
1.67804e-56
1.12844e-55
6.68289e-55
3.35379e-54
1.22886e-53
5.10001e-54
-4.74913e-52
-6.06569e-51
-5.36515e-50
-3.91287e-49
-2.43064e-48
-1.25096e-47
-4.61446e-47
-1.90238e-47
1.71058e-45
2.07507e-44
1.69491e-43
1.09524e-42
5.58514e-42
1.90334e-41
4.55237e-41
8.24605e-41
1.1827e-40
1.36372e-40
1.23077e-40
7.44668e-41
-1.54714e-42
-8.85147e-41
-1.67778e-40
-2.24601e-40
-2.51747e-40
-2.49845e-40
-2.25306e-40
-1.87209e-40
-1.44445e-40
-1.03873e-40
-6.96621e-41
-4.34099e-41
-2.48987e-41
-1.28697e-41
-5.6945e-42
-1.82004e-42
8.28384e-45
6.88298e-43
7.98696e-43
6.76549e-43
4.96491e-43
3.32142e-43
2.07641e-43
1.22954e-43
6.95422e-44
3.77802e-44
1.97907e-44
1.00361e-44
4.93503e-45
2.35782e-45
1.09638e-45
4.96906e-46
2.19858e-46
9.50657e-47
4.01933e-47
1.66312e-47
6.73372e-48
2.68303e-48
1.04907e-48
4.02688e-49
1.51852e-49
5.62936e-50
2.05121e-50
7.34625e-51
2.59341e-51
9.0079e-52
3.07613e-52
1.03823e-52
3.44906e-53
1.128e-53
3.63071e-54
1.14979e-54
3.60362e-55
1.11169e-55
3.37529e-56
1.01061e-56
2.97706e-57
8.62184e-58
2.46214e-58
6.94148e-59
1.93263e-59
5.31256e-60
1.44063e-60
3.84742e-61
1.00882e-61
2.58281e-62
6.39598e-63
1.5057e-63
3.27204e-64
6.16293e-65
8.97379e-66
6.13965e-67
-1.4638e-44
5.47743e-43
-1.57104e-42
-8.18547e-42
-1.30599e-41
-1.34811e-41
-1.09447e-41
-7.51368e-42
-4.54228e-42
-2.44798e-42
-1.18389e-42
-5.83703e-43
-4.82305e-43
-5.06869e-43
-4.5857e-43
-3.50791e-43
-2.37442e-43
-1.47435e-43
-8.60205e-44
-4.78573e-44
-2.5634e-44
-1.33005e-44
-6.70993e-45
-3.29446e-45
-1.57352e-45
-7.28597e-46
-3.21603e-46
-1.21296e-46
-1.00969e-47
5.58076e-47
8.15916e-47
7.80274e-47
6.09734e-47
4.2086e-47
2.66999e-47
1.59363e-47
9.0804e-48
4.98562e-48
2.65354e-48
1.37416e-48
6.93863e-49
3.41892e-49
1.64347e-49
7.69861e-50
3.51068e-50
1.56584e-50
7.12592e-51
3.83262e-51
2.79874e-51
2.36832e-51
1.9067e-51
1.37211e-51
8.8327e-52
5.15975e-52
2.77236e-52
1.38336e-52
6.44401e-53
2.79751e-53
1.10279e-53
3.37996e-54
-8.32891e-56
-1.46772e-54
-1.61594e-54
-1.19316e-54
-6.95247e-55
-3.39003e-55
-1.43545e-55
-5.63501e-56
-2.38669e-56
-1.1904e-56
-5.6101e-57
-1.47948e-57
1.34204e-57
3.18917e-57
3.61233e-57
2.43439e-57
9.65211e-58
2.38653e-59
-4.84253e-58
-2.31397e-58
9.90612e-57
1.21206e-55
1.05314e-54
7.63657e-54
4.75497e-53
2.47997e-52
9.569e-52
9.39917e-52
-2.91183e-50
-3.84082e-49
-3.31365e-48
-2.29772e-47
-1.32034e-46
-5.95229e-46
-1.5149e-45
6.67607e-45
1.37563e-43
1.29464e-42
9.06584e-42
4.92561e-41
1.80169e-40
2.59163e-40
-1.26332e-40
-1.48911e-39
-4.10082e-39
-7.7428e-39
-1.172e-38
-1.51211e-38
-1.71649e-38
-1.7459e-38
-1.60752e-38
-1.34527e-38
-1.02071e-38
-6.93504e-39
-4.08031e-39
-1.88146e-39
-3.88863e-40
4.79799e-40
8.74953e-40
9.55702e-40
8.60638e-40
6.91394e-40
5.11798e-40
3.54984e-40
2.32995e-40
1.4564e-40
8.7069e-41
4.99343e-41
2.75547e-41
1.46448e-41
7.50536e-42
3.71195e-42
1.7724e-42
8.1721e-43
3.63896e-43
1.55999e-43
6.43499e-44
2.5474e-44
9.63809e-45
3.46014e-45
1.16825e-45
3.64461e-46
1.00554e-46
2.18677e-47
1.83933e-48
-1.69112e-48
-1.44614e-48
-7.90687e-49
-3.59712e-49
-1.52238e-49
-5.91104e-50
-2.14396e-50
-7.13749e-51
-2.18085e-51
-5.87324e-52
-1.38923e-52
-2.16688e-53
2.36154e-54
4.25893e-54
2.6085e-54
1.25234e-54
5.33437e-55
2.10599e-55
7.87016e-56
2.81674e-56
9.72567e-57
3.25842e-57
1.06368e-57
3.39394e-58
1.06093e-58
3.25401e-59
9.79905e-60
2.89595e-60
8.38195e-61
2.36551e-61
6.45292e-62
1.67693e-62
4.03289e-63
8.60755e-64
1.42493e-64
-6.82806e-41
-8.9384e-40
1.32716e-39
5.58919e-39
7.48078e-39
6.78312e-39
4.99821e-39
3.19057e-39
1.82699e-39
9.46306e-40
4.43958e-40
2.10241e-40
1.65973e-40
1.71882e-40
1.55245e-40
1.18991e-40
8.08593e-41
5.04909e-41
2.96724e-41
1.66531e-41
9.01081e-42
4.72903e-42
2.41599e-42
1.20262e-42
5.83011e-43
2.74457e-43
1.23918e-43
4.94684e-44
8.08134e-45
-1.73613e-44
-2.85754e-44
-2.86916e-44
-2.31739e-44
-1.64241e-44
-1.06603e-44
-6.49528e-45
-3.77249e-45
-2.10923e-45
-1.1424e-45
-6.01765e-46
-3.0899e-46
-1.54808e-46
-7.56675e-47
-3.60448e-47
-1.67103e-47
-7.55163e-48
-3.42708e-48
-1.77885e-48
-1.25732e-48
-1.07355e-48
-8.90107e-49
-6.6153e-49
-4.39015e-49
-2.63825e-49
-1.45603e-49
-7.45635e-50
-3.56478e-50
-1.59191e-50
-6.53149e-51
-2.2141e-51
-2.01133e-52
6.82664e-52
8.66923e-52
6.86511e-52
4.2155e-52
2.14965e-52
9.44965e-53
3.79088e-53
1.61082e-53
8.22499e-54
4.18787e-54
1.48164e-54
-4.45918e-55
-1.89955e-54
-2.5491e-54
-1.92983e-54
-8.82035e-55
-1.55371e-55
1.90684e-55
3.26636e-55
7.60275e-55
4.62579e-54
2.92575e-53
1.36867e-52
1.88645e-52
-4.87322e-51
-7.11059e-50
-6.31389e-49
-4.12605e-48
-1.82731e-47
-1.36374e-47
7.43996e-46
9.50343e-45
7.58541e-44
4.31839e-43
1.43655e-42
-3.3878e-42
-1.02436e-40
-9.89449e-40
-6.45729e-39
-2.83331e-38
-8.07909e-38
-1.68074e-37
-2.75708e-37
-3.73747e-37
-4.29696e-37
-4.22697e-37
-3.51393e-37
-2.32777e-37
-9.43133e-38
3.60105e-38
1.37474e-37
2.00183e-37
2.24517e-37
2.1797e-37
1.91208e-37
1.54733e-37
1.16833e-37
8.29036e-38
5.54726e-38
3.50481e-38
2.08897e-38
1.17009e-38
6.10795e-39
2.92089e-39
1.23188e-39
4.11825e-40
5.88469e-41
-6.50134e-41
-8.75199e-41
-7.34621e-41
-5.16698e-41
-3.28247e-41
-1.94252e-41
-1.08753e-41
-5.82847e-42
-3.0036e-42
-1.49482e-42
-7.20718e-43
-3.3747e-43
-1.5377e-43
-6.82824e-44
-2.95819e-44
-1.25167e-44
-5.17045e-45
-2.09788e-45
-8.33684e-46
-3.24562e-46
-1.23824e-46
-4.64091e-47
-1.70667e-47
-6.15698e-48
-2.18332e-48
-7.6042e-49
-2.59693e-49
-8.75843e-50
-2.90288e-50
-9.45372e-51
-3.02596e-51
-9.51811e-52
-2.94251e-52
-8.94018e-53
-2.66929e-53
-7.83572e-54
-2.26009e-54
-6.40267e-55
-1.78255e-55
-4.87827e-56
-1.31188e-56
-3.46333e-57
-8.95795e-58
-2.2623e-58
-5.54611e-59
-1.30652e-59
-2.90408e-60
-5.87365e-61
-9.93648e-62
-1.0252e-62
1.2371e-63
1.06983e-63
8.44903e-38
6.55387e-37
-6.35322e-37
-2.42937e-36
-2.91225e-36
-2.41961e-36
-1.66499e-36
-1.00799e-36
-5.54464e-37
-2.7889e-37
-1.27967e-37
-5.85186e-38
-4.40879e-38
-4.50339e-38
-4.07268e-38
-3.13647e-38
-2.14462e-38
-1.34907e-38
-7.99633e-39
-4.53165e-39
-2.47876e-39
-1.31646e-39
-6.81305e-40
-3.43886e-40
-1.69215e-40
-8.09677e-41
-3.73306e-41
-1.56258e-41
-3.57113e-42
4.07173e-42
7.78733e-42
8.24374e-42
6.89119e-42
5.01753e-42
3.33257e-42
2.07282e-42
1.22705e-42
6.98496e-43
3.84901e-43
2.06177e-43
1.07625e-43
5.48111e-44
2.72335e-44
1.3189e-44
6.21624e-45
2.84991e-45
1.2954e-45
6.51205e-46
4.42075e-46
3.78079e-46
3.22218e-46
2.47345e-46
1.69312e-46
1.04726e-46
5.93932e-47
3.12254e-47
1.53231e-47
7.03361e-48
2.99086e-48
1.09644e-48
1.9264e-49
-2.34779e-49
-3.58484e-49
-3.06372e-49
-1.98708e-49
-1.06136e-49
-4.85353e-50
-1.99498e-50
-8.48615e-51
-4.39151e-51
-2.37399e-51
-1.00371e-51
-3.06576e-54
8.3666e-52
1.38005e-51
1.17931e-51
6.06878e-52
1.53599e-52
-8.82271e-53
-1.73542e-52
-1.17225e-52
2.53691e-52
2.85695e-51
1.54663e-50
3.40897e-50
-4.05273e-49
-6.8827e-48
-6.38181e-47
-4.24004e-46
-1.87442e-45
-1.1661e-45
7.83619e-44
9.69062e-43
7.42773e-42
3.90884e-41
9.5917e-41
-7.24766e-40
-1.238e-38
-1.02915e-37
-5.62912e-37
-1.48742e-36
-2.41372e-36
-2.4995e-36
-9.96946e-37
2.29104e-36
6.8693e-36
1.17533e-35
1.58635e-35
1.83945e-35
1.90174e-35
1.7879e-35
1.5458e-35
1.23654e-35
9.16915e-36
6.28663e-36
3.94964e-36
2.22545e-36
1.06567e-36
3.59631e-37
-1.81476e-38
-1.8254e-37
-2.23495e-37
-2.03339e-37
-1.60493e-37
-1.15629e-37
-7.78475e-38
-4.96064e-38
-3.01555e-38
-1.76082e-38
-9.90275e-39
-5.37992e-39
-2.82993e-39
-1.44404e-39
-7.15975e-40
-3.45458e-40
-1.62324e-40
-7.438e-41
-3.32742e-41
-1.45486e-41
-6.22274e-42
-2.60865e-42
-1.0734e-42
-4.33659e-43
-1.72239e-43
-6.7256e-44
-2.59732e-44
-9.90611e-45
-3.73545e-45
-1.39514e-45
-5.14035e-46
-1.87615e-46
-6.77535e-47
-2.43493e-47
-8.67925e-48
-3.06517e-48
-1.07199e-48
-3.71072e-49
-1.27037e-49
-4.29882e-50
-1.43688e-50
-4.74167e-51
-1.54416e-51
-4.96098e-52
-1.57239e-52
-4.91549e-53
-1.51558e-53
-4.61118e-54
-1.38507e-54
-4.10898e-55
-1.20419e-55
-3.486e-56
-9.9637e-57
-2.80841e-57
-7.78841e-58
-2.11673e-58
-5.60036e-59
-1.42787e-59
-3.44975e-60
-7.74152e-61
-1.52372e-61
-5.27008e-35
-2.89439e-34
2.00301e-34
7.42106e-34
8.28964e-34
6.49236e-34
4.25972e-34
2.48381e-34
1.32778e-34
6.54363e-35
2.95842e-35
1.31429e-35
9.44256e-36
9.51191e-36
8.6325e-36
6.69591e-36
4.6163e-36
2.93009e-36
1.75385e-36
1.00459e-36
5.55874e-37
2.98901e-37
1.56752e-37
8.02436e-38
4.00817e-38
1.94906e-38
9.16405e-39
3.99211e-39
1.12719e-39
-7.36156e-40
-1.7201e-39
-1.92917e-39
-1.6714e-39
-1.25094e-39
-8.50404e-40
-5.39989e-40
-3.25784e-40
-1.88791e-40
-1.05823e-40
-5.76327e-41
-3.05778e-41
-1.58257e-41
-7.99127e-42
-3.93373e-42
-1.88487e-42
-8.77514e-43
-4.01141e-43
-1.96385e-43
-1.27298e-43
-1.08099e-43
-9.44224e-44
-7.48453e-44
-5.2865e-44
-3.36722e-44
-1.96316e-44
-1.05995e-44
-5.33986e-45
-2.51835e-45
-1.10639e-45
-4.31881e-46
-1.04167e-46
6.03196e-47
1.19068e-46
1.10655e-46
7.59896e-47
4.25754e-47
2.02933e-47
8.57436e-48
3.65107e-48
1.89813e-48
1.07488e-48
5.12874e-49
9.81098e-50
-2.7689e-49
-5.97538e-49
-5.81115e-49
-3.34283e-49
-1.07402e-49
2.74464e-50
8.90276e-50
8.50834e-50
1.04442e-49
1.77075e-49
3.59536e-49
-2.67934e-49
-2.09723e-47
-2.25934e-46
-1.42171e-45
-4.0569e-45
2.60831e-44
4.55248e-43
3.30681e-42
1.13424e-41
-4.16438e-41
-9.12818e-40
-6.79413e-39
-2.32734e-38
8.74842e-38
1.9532e-36
1.58746e-35
6.38373e-35
1.59715e-34
2.96398e-34
4.45667e-34
5.70003e-34
6.38064e-34
6.35423e-34
5.6707e-34
4.52644e-34
3.18094e-34
1.87619e-34
7.84227e-35
-1.06618e-36
-5.01827e-35
-7.35065e-35
-7.80619e-35
-7.10546e-35
-5.84787e-35
-4.46349e-35
-3.20008e-35
-2.17216e-35
-1.40297e-35
-8.64964e-36
-5.09956e-36
-2.87707e-36
-1.55265e-36
-8.00125e-37
-3.92336e-37
-1.81712e-37
-7.85577e-38
-3.09441e-38
-1.04959e-38
-2.53498e-39
1.0286e-40
6.92094e-40
6.31101e-40
4.30803e-40
2.57146e-40
1.41172e-40
7.29602e-41
3.5923e-41
1.69775e-41
7.74535e-42
3.42278e-42
1.46622e-42
6.13543e-43
2.50226e-43
9.95217e-44
3.85995e-44
1.46853e-44
5.46343e-45
1.98788e-45
7.07565e-46
2.46477e-46
8.40183e-47
2.80242e-47
9.14611e-48
2.91957e-48
9.11184e-49
2.77834e-49
8.26888e-50
2.39883e-50
6.76992e-51
1.85362e-51
4.90166e-52
1.24289e-52
2.98625e-53
6.64503e-54
1.29937e-54
1.88395e-55
-1.52705e-58
-1.55094e-56
-8.73255e-57
-3.65132e-57
-1.34017e-57
-4.53719e-58
-1.44257e-58
-4.32177e-59
-1.21644e-59
-3.1456e-60
2.10073e-32
8.79776e-32
-4.52752e-32
-1.69851e-31
-1.81419e-31
-1.36628e-31
-8.68114e-32
-4.93514e-32
-2.58854e-32
-1.25948e-32
-5.64797e-33
-2.45337e-33
-1.68053e-33
-1.66753e-33
-1.52116e-33
-1.19089e-33
-8.2936e-34
-5.31982e-34
-3.2195e-34
-1.86563e-34
-1.04504e-34
-5.69235e-35
-3.02614e-35
-1.57151e-35
-7.96941e-36
-3.93813e-36
-1.8864e-36
-8.50216e-37
-2.78303e-37
1.01403e-37
3.16678e-37
3.78448e-37
3.40348e-37
2.62001e-37
1.82351e-37
1.18218e-37
7.26893e-38
4.28787e-38
2.44459e-38
1.3534e-38
7.29715e-39
3.83742e-39
1.96892e-39
9.84967e-40
4.79764e-40
2.26966e-40
1.0472e-40
5.02695e-41
3.10188e-41
2.59001e-41
2.30929e-41
1.88882e-41
1.37692e-41
9.03485e-42
5.41728e-42
3.00477e-42
1.55438e-42
7.53036e-43
3.41068e-43
1.40204e-43
4.11497e-44
-1.10041e-44
-3.26893e-44
-3.33427e-44
-2.43043e-44
-1.43028e-44
-7.11838e-45
-3.10274e-45
-1.32522e-45
-6.87129e-46
-4.031e-46
-2.09857e-46
-6.71929e-47
6.67494e-47
2.13056e-46
2.38456e-46
1.52682e-46
5.85101e-47
-3.38654e-48
-3.80651e-47
-3.68807e-47
-4.20463e-47
-5.62744e-47
-3.68426e-47
-3.18823e-46
-3.19533e-45
-1.57023e-44
2.24328e-44
1.25988e-42
1.33597e-41
7.79157e-41
9.6523e-41
-3.40902e-39
-4.29963e-38
-2.79336e-37
-6.7222e-37
7.72872e-36
1.16637e-34
8.18866e-34
2.5453e-33
4.9178e-33
7.04671e-33
7.96308e-33
7.10089e-33
4.51864e-33
8.11107e-34
-3.1656e-33
-6.60478e-33
-8.96587e-33
-1.00527e-32
-9.97011e-33
-9.01434e-33
-7.54982e-33
-5.9119e-33
-4.3513e-33
-3.01796e-33
-1.97253e-33
-1.21141e-33
-6.93975e-34
-3.65294e-34
-1.7093e-34
-6.50542e-35
-1.3194e-35
8.30031e-36
1.43452e-35
1.35795e-35
1.05418e-35
7.33188e-36
4.74473e-36
2.90057e-36
1.69237e-36
9.48649e-37
5.13203e-37
2.68833e-37
1.3667e-37
6.76195e-38
3.2599e-38
1.53356e-38
7.04837e-39
3.1679e-39
1.39418e-39
6.01404e-40
2.54372e-40
1.05574e-40
4.29556e-41
1.72323e-41
6.7994e-42
2.63914e-42
1.00797e-42
3.78957e-43
1.40304e-43
5.11621e-44
1.83776e-44
6.50417e-45
2.26811e-45
7.79335e-46
2.63876e-46
8.80405e-47
2.89458e-47
9.37783e-48
2.99399e-48
9.42008e-49
2.92112e-49
8.92929e-50
2.69098e-50
7.99658e-51
2.34395e-51
6.77947e-52
1.93539e-52
5.45394e-53
1.51686e-53
4.16114e-54
1.12448e-54
2.98654e-55
7.76628e-56
1.96539e-56
4.79655e-57
1.11313e-57
2.41299e-58
4.64782e-59
-6.00417e-30
-1.98987e-29
7.73986e-30
3.04584e-29
3.16639e-29
2.32626e-29
1.44839e-29
8.10594e-30
4.20484e-30
2.03313e-30
9.09672e-31
3.88937e-31
2.54154e-31
2.47898e-31
2.27529e-31
1.80111e-31
1.26927e-31
8.23982e-32
5.04792e-32
2.96215e-32
1.68097e-32
9.28057e-33
5.00345e-33
2.63671e-33
1.35779e-33
6.8188e-34
3.32542e-34
1.54358e-34
5.63884e-35
-9.71298e-36
-4.95864e-35
-6.35776e-35
-5.94483e-35
-4.71006e-35
-3.35723e-35
-2.22248e-35
-1.39279e-35
-8.36311e-36
-4.84923e-36
-2.72888e-36
-1.49505e-36
-7.98764e-37
-4.16378e-37
-2.11655e-37
-1.04792e-37
-5.03969e-38
-2.35379e-38
-1.11615e-38
-6.55799e-39
-5.33024e-39
-4.82511e-39
-4.06708e-39
-3.06e-39
-2.06912e-39
-1.27639e-39
-7.27553e-40
-3.86573e-40
-1.92385e-40
-8.97059e-41
-3.85255e-41
-1.29558e-41
1.03446e-42
7.57779e-42
8.58109e-42
6.65641e-42
4.11922e-42
2.14384e-42
9.67412e-43
4.16039e-43
2.13998e-43
1.2879e-43
7.15778e-44
2.94754e-44
-9.7002e-45
-6.39737e-44
-8.36088e-44
-5.9464e-44
-2.62275e-44
-2.2611e-45
1.42006e-44
1.43393e-44
1.59463e-44
2.84636e-44
1.40511e-44
-3.9031e-44
-2.1355e-43
-6.58332e-43
2.66906e-42
6.87431e-41
5.82739e-40
2.1367e-39
-1.11425e-38
-2.35071e-37
-1.7978e-36
-5.64751e-36
3.85243e-35
6.92539e-34
4.96649e-33
1.244e-32
-2.65003e-33
-5.81935e-32
-1.55162e-31
-2.76423e-31
-3.94697e-31
-4.83674e-31
-5.26734e-31
-5.20113e-31
-4.71319e-31
-3.94641e-31
-3.06105e-31
-2.19506e-31
-1.44285e-31
-8.51309e-32
-4.27668e-32
-1.52789e-32
5.39019e-34
8.13312e-33
1.0529e-32
1.00841e-32
8.36729e-33
6.33453e-33
4.48051e-33
2.99949e-33
1.91566e-33
1.17331e-33
6.91673e-34
3.93459e-34
2.16357e-34
1.15264e-34
5.95298e-35
2.98311e-35
1.45133e-35
6.85806e-36
3.14841e-36
1.4054e-36
6.08456e-37
2.55656e-37
1.04177e-37
4.11257e-38
1.56943e-38
5.78808e-39
2.0606e-39
7.04063e-40
2.29692e-40
7.10446e-41
2.06214e-41
5.52785e-42
1.33475e-42
2.79891e-43
4.95044e-44
9.15894e-45
4.20349e-45
3.32441e-45
2.34029e-45
1.39902e-45
7.39721e-46
3.57152e-46
1.6079e-46
6.843e-47
2.77912e-47
1.08434e-47
4.0849e-48
1.49152e-48
5.29481e-49
1.83204e-49
6.19182e-50
2.04797e-50
6.64027e-51
2.11372e-51
6.61394e-52
2.03642e-52
6.17403e-53
1.84362e-53
5.42024e-54
1.56712e-54
4.44568e-55
1.23315e-55
3.32721e-56
8.68973e-57
2.16063e-57
1.31675e-27
3.52358e-27
-1.03558e-27
-4.42067e-27
-4.53019e-27
-3.28171e-27
-2.02067e-27
-1.12204e-27
-5.79461e-28
-2.79997e-28
-1.25649e-28
-5.32308e-29
-3.32337e-29
-3.17723e-29
-2.93513e-29
-2.35289e-29
-1.68058e-29
-1.10574e-29
-6.86556e-30
-4.0837e-30
-2.34962e-30
-1.31565e-30
-7.19689e-31
-3.85001e-31
-2.01377e-31
-1.02794e-31
-5.10204e-32
-2.43045e-32
-9.66496e-33
3.33907e-34
6.70439e-33
9.29947e-33
9.05676e-33
7.39036e-33
5.39662e-33
3.64875e-33
2.33075e-33
1.42465e-33
8.40149e-34
4.80565e-34
2.67515e-34
1.45199e-34
7.68926e-35
3.9714e-35
1.9985e-35
9.77303e-36
4.63079e-36
2.18498e-36
1.22694e-36
9.61639e-37
8.77858e-37
7.61028e-37
5.90815e-37
4.11791e-37
2.61441e-37
1.53202e-37
8.36366e-38
4.27659e-38
2.05134e-38
9.1519e-39
3.40408e-39
1.60319e-40
-1.50826e-39
-1.92355e-39
-1.5919e-39
-1.03693e-39
-5.64995e-40
-2.64811e-40
-1.15263e-40
-5.86409e-41
-3.58845e-41
-2.09793e-41
-9.99031e-42
-4.52472e-43
1.64834e-41
2.56181e-41
2.02238e-41
1.00286e-41
2.04191e-42
-4.71327e-42
-5.1285e-42
-4.95917e-42
-1.17836e-41
-9.02848e-42
5.24841e-42
3.22194e-41
6.48172e-41
4.51159e-40
1.31302e-39
-2.17103e-38
-3.2707e-37
-1.67347e-36
7.69086e-36
1.99254e-34
1.40881e-33
-2.36899e-34
-9.96006e-32
-9.6382e-31
-2.9595e-30
-5.75743e-30
-8.61039e-30
-1.07026e-29
-1.14839e-29
-1.08257e-29
-8.98535e-30
-6.4497e-30
-3.75446e-30
-1.33961e-30
5.23975e-31
1.74158e-30
2.3571e-30
2.49702e-30
2.31719e-30
1.96346e-30
1.55009e-30
1.15311e-30
8.13829e-31
5.47115e-31
3.51376e-31
2.15787e-31
1.26696e-31
7.10059e-32
3.78493e-32
1.9061e-32
8.95675e-33
3.83059e-33
1.40649e-33
3.63521e-34
-2.60383e-35
-1.29711e-34
-1.26146e-34
-9.32952e-35
-6.06107e-35
-3.62965e-35
-2.04614e-35
-1.10292e-35
-5.71646e-36
-2.86315e-36
-1.39065e-36
-6.56665e-37
-3.02026e-37
-1.35522e-37
-5.94028e-38
-2.54618e-38
-1.06803e-38
-4.38714e-39
-1.76595e-39
-6.96938e-40
-2.69765e-40
-1.02447e-40
-3.81839e-41
-1.39706e-41
-5.01853e-42
-1.77024e-42
-6.13218e-43
-2.08617e-43
-6.97026e-44
-2.28721e-44
-7.37066e-45
-2.33247e-45
-7.24743e-46
-2.21079e-46
-6.61925e-47
-1.94468e-47
-5.6038e-48
-1.58288e-48
-4.37905e-49
-1.18508e-49
-3.13124e-50
-8.05316e-51
-2.00605e-51
-4.79941e-52
-1.08619e-52
-2.25503e-53
-3.97934e-54
-4.39379e-55
6.60258e-56
6.93189e-56
3.22921e-56
1.20376e-56
-2.31633e-25
-5.06073e-25
1.1065e-25
5.32014e-25
5.42588e-25
3.90764e-25
2.39686e-25
1.32906e-25
6.8718e-26
3.33453e-26
1.50779e-26
6.37068e-27
3.81007e-27
3.55764e-27
3.30677e-27
2.68771e-27
1.94865e-27
1.30128e-27
8.1987e-28
4.9482e-28
2.88899e-28
1.64177e-28
9.11724e-29
4.95328e-29
2.63246e-29
1.36619e-29
6.90039e-30
3.36473e-30
1.43156e-30
9.93295e-32
-7.91767e-31
-1.20024e-30
-1.21973e-30
-1.02582e-30
-7.67711e-31
-5.30263e-31
-3.45321e-31
-2.14891e-31
-1.28897e-31
-7.49454e-32
-4.2392e-32
-2.33755e-32
-1.2576e-32
-6.59966e-33
-3.37556e-33
-1.67873e-33
-8.08293e-34
-3.82007e-34
-2.06367e-34
-1.54792e-34
-1.41364e-34
-1.25687e-34
-1.00626e-34
-7.23039e-35
-4.72623e-35
-2.84837e-35
-1.59833e-35
-8.3999e-36
-4.14374e-36
-1.91305e-36
-7.69326e-37
-1.07278e-37
2.61393e-37
3.82211e-37
3.3826e-37
2.32087e-37
1.32495e-37
6.46782e-38
2.86652e-38
1.44209e-38
8.89961e-39
5.41811e-39
2.81191e-39
8.58162e-40
-3.71111e-39
-7.00789e-39
-6.13968e-39
-3.36512e-39
-1.03194e-39
1.41378e-39
1.75233e-39
1.31559e-39
4.3009e-39
4.2589e-39
-3.72785e-40
-1.42512e-38
-7.66092e-39
2.388e-38
-1.08842e-37
-3.58632e-36
-2.83643e-35
1.98712e-35
2.66169e-33
2.53989e-32
3.28497e-32
-1.80208e-30
-2.08281e-29
-5.39801e-29
-7.39946e-29
-6.5412e-29
-2.49804e-29
3.88202e-29
1.10899e-28
1.75588e-28
2.21347e-28
2.43004e-28
2.41272e-28
2.21014e-28
1.89005e-28
1.51997e-28
1.15456e-28
8.30138e-29
5.65047e-29
3.6326e-29
2.19308e-29
1.22884e-29
6.23627e-30
2.70501e-30
8.14921e-31
-7.62895e-32
-4.09268e-31
-4.62423e-31
-3.97522e-31
-2.99693e-31
-2.07857e-31
-1.35602e-31
-8.42211e-32
-5.01547e-32
-2.88408e-32
-1.6052e-32
-8.6705e-33
-4.55472e-33
-2.33086e-33
-1.16364e-33
-5.67367e-34
-2.70463e-34
-1.26182e-34
-5.76666e-35
-2.58379e-35
-1.13588e-35
-4.90312e-36
-2.07972e-36
-8.67465e-37
-3.56057e-37
-1.43904e-37
-5.73027e-38
-2.24945e-38
-8.70955e-39
-3.3274e-39
-1.25473e-39
-4.67137e-40
-1.71734e-40
-6.2347e-41
-2.23526e-41
-7.9134e-42
-2.76611e-42
-9.54519e-43
-3.25114e-43
-1.09283e-43
-3.62469e-44
-1.18615e-44
-3.82945e-45
-1.21969e-45
-3.83274e-46
-1.1884e-46
-3.63653e-47
-1.0985e-47
-3.27664e-48
-9.65419e-49
-2.81049e-49
-8.08544e-50
-2.29867e-50
-6.45609e-51
-1.79003e-51
-4.89284e-52
-1.31565e-52
-3.46957e-53
-8.93648e-54
-2.2388e-54
-5.38002e-55
3.37081e-23
6.04819e-23
-9.49974e-24
-5.40669e-23
-5.52912e-23
-3.98474e-23
-2.44933e-23
-1.36363e-23
-7.09343e-24
-3.47172e-24
-1.58843e-24
-6.73574e-25
-3.87342e-25
-3.51849e-25
-3.2869e-25
-2.71118e-25
-1.99806e-25
-1.35607e-25
-8.68044e-26
-5.32141e-26
-3.15546e-26
-1.82127e-26
-1.02739e-26
-5.67143e-27
-3.06379e-27
-1.61711e-27
-8.31251e-28
-4.14146e-28
-1.86187e-28
-2.80826e-29
8.23831e-29
1.38213e-28
1.46847e-28
1.2738e-28
9.77437e-29
6.89908e-29
4.58153e-29
2.90321e-29
1.77155e-29
1.04721e-29
6.01971e-30
3.37265e-30