/*--------------------------------*- C++ -*----------------------------------*\
| =========                 |                                                 |
| \\      /  F ield         | OpenFOAM: The Open Source CFD Toolbox           |
|  \\    /   O peration     | Version:  4.1                                   |
|   \\  /    A nd           | Web:      www.OpenFOAM.org                      |
|    \\/     M anipulation  |                                                 |
\*---------------------------------------------------------------------------*/
FoamFile
{
    version     2.0;
    format      ascii;
    class       volScalarField;
    location    "0.05";
    object      T;
}
// * * * * * * * * * * * * * * * * * * * * * * * * * * * * * * * * * * * * * //

dimensions      [0 0 0 1 0 0 0];

internalField   nonuniform List<scalar> 
12225
(
1.11552
1.23317
1.29917
1.34126
1.36974
1.38851
1.40119
1.41004
1.41642
1.42116
1.42479
1.42763
1.4299
1.43177
1.4333
1.43469
1.43581
1.43518
0.860947
0.707839
0.632408
0.594821
0.576427
0.569644
0.569414
0.572758
0.577971
0.584077
0.590513
0.596954
0.603214
0.609181
0.61481
0.619994
0.624958
0.628865
1.03458
1.08006
1.10414
1.11423
1.11556
1.11189
1.10559
1.09802
1.08996
1.08185
1.07398
1.06647
1.05942
1.05284
1.04677
1.04114
1.0362
1.0315
1.00165
0.998855
0.992981
0.988432
0.986044
0.98539
0.98593
0.9872
0.988859
0.990683
0.992533
0.994323
0.995998
0.997539
0.998939
1.00018
1.0013
1.00234
1.00023
1.00039
1.00026
1.00043
1.00067
1.0008
1.00084
1.0008
1.00072
1.00062
1.00051
1.00042
1.00033
1.00027
1.00023
1.00019
1.00021
1.00021
0.999584
0.999244
0.998899
0.998714
0.99862
0.998535
0.998453
0.99839
0.998342
0.998302
0.998271
0.998244
0.99822
0.998204
0.998189
0.998174
0.998175
0.998153
0.999929
1.00011
1.00016
1.00019
1.00023
1.00025
1.00026
1.00026
1.00026
1.00026
1.00026
1.00025
1.00024
1.00023
1.00022
1.00021
1.00021
1.00019
0.999971
1.00007
1.00006
1.00002
1.00001
1.00001
1.00001
1
1
1
1
1.00001
1.00002
1.00002
1.00002
1.00003
1.00003
1.00003
0.999979
1.00004
1.00003
1.00002
1.00002
1.00002
1.00002
1.00002
1.00002
1.00003
1.00003
1.00003
1.00003
1.00003
1.00003
1.00003
1.00003
1.00003
0.999978
1.00002
1.00001
0.999998
0.999998
1
0.999999
0.999997
0.999996
0.999997
0.999995
0.999996
1
0.999999
0.999995
1
0.999995
0.999997
0.999985
1.00001
1.00001
1
1
0.999997
0.999997
0.999997
1
1
1
0.999998
0.999997
1
1
1
0.999997
1
0.999988
1.00001
1.00001
0.999999
0.999997
0.999999
0.999998
0.999999
0.999998
0.999996
0.999996
0.999997
0.999999
0.999999
1
1
0.999996
1
0.999989
1.00001
1.00001
1
0.999999
0.999999
1
1
0.999999
0.999998
1
0.999998
0.999999
1
0.999999
1
0.999993
0.999997
0.999991
1
1.00001
1.00001
1
1
0.999997
0.999998
0.999999
0.999998
0.999996
0.999998
0.999997
0.999997
0.999997
0.999997
0.999994
1
0.999993
1
1.00001
1.00001
1
1
0.999998
0.999999
0.999999
0.999999
1
0.999999
0.999999
1
0.999995
0.999998
0.999992
0.999998
0.999994
1
1.00001
1
1
1
1
0.999999
0.999999
0.999997
0.999997
1
1
1
0.999999
0.999998
0.999993
0.999999
0.999993
1
1
1
1
1
1
1
0.999999
1
1
0.999999
0.999998
0.999999
1
1
0.999997
0.999999
0.999995
1
1
1.00001
1.00001
1.00001
1
1
1
1
1
1
1.00001
1.00001
1
1
0.999997
1
0.999995
1
1
1
1
1
1.00001
1
0.999999
1
1
1
0.999997
0.999995
0.999999
0.999997
0.999991
0.999995
0.999992
1
1
1
1
1
1.00001
1.00001
1.00001
1
1.00001
1.00001
1.00001
1.00001
1.00001
1.00001
1.00001
1.00002
0.999991
0.999999
1.00001
1
0.999996
0.999991
0.999991
0.999988
0.999986
0.999985
0.999981
0.999979
0.999975
0.999972
0.999972
0.999972
0.999964
0.999966
0.999988
1
1.00001
1.00001
1.00002
1.00002
1.00003
1.00004
1.00004
1.00005
1.00006
1.00006
1.00007
1.00007
1.00008
1.00008
1.00008
1.00009
0.999982
1
1
0.999974
0.999943
0.999921
0.9999
0.999878
0.99986
0.999842
0.999828
0.999815
0.999802
0.999795
0.999786
0.999779
0.99977
0.999767
0.999965
1.00007
1.00018
1.00024
1.0003
1.00037
1.00043
1.00049
1.00054
1.00058
1.00062
1.00065
1.00067
1.00069
1.00071
1.00072
1.00073
1.00074
0.999753
0.999568
0.999366
0.999131
0.998913
0.998704
0.998509
0.998342
0.998201
0.998088
0.998002
0.997936
0.997889
0.997856
0.997838
0.997829
0.997822
0.997814
0.999992
1.00043
1.00095
1.00167
1.00247
1.00316
1.00368
1.00405
1.00429
1.00442
1.00447
1.00446
1.0044
1.00432
1.00421
1.00409
1.00396
1.00386
0.999945
0.996247
0.990161
0.98452
0.980273
0.977358
0.975527
0.97452
0.974115
0.974128
0.974432
0.974931
0.975556
0.976259
0.977006
0.977763
0.978549
0.979195
1.0214
1.05634
1.0798
1.09471
1.10362
1.10848
1.11069
1.11118
1.11056
1.10922
1.10743
1.10537
1.10317
1.1009
1.09862
1.09638
1.09417
1.09224
0.922802
0.82784
0.774466
0.743959
0.725618
0.714657
0.708441
0.705217
0.70388
0.70374
0.704359
0.705454
0.70684
0.708395
0.710039
0.711701
0.713398
0.714943
1.06291
1.12901
1.16726
1.19166
1.20826
1.21975
1.22781
1.23361
1.2379
1.24113
1.24365
1.24564
1.24725
1.24858
1.24971
1.25063
1.25155
1.25214
-1.56983e-20
-4.09827e-21
-3.13674e-21
-2.5715e-21
5.05196e-24
1.63274e-21
3.40775e-21
5.06657e-21
6.02442e-21
6.20895e-21
5.82373e-21
5.09681e-21
4.23704e-21
3.39003e-21
2.63499e-21
2.0003e-21
1.48463e-21
1.07399e-21
7.5171e-22
5.02537e-22
3.1345e-22
1.73397e-22
7.27993e-23
2.73773e-24
-4.58194e-23
-7.8263e-23
-7.82303e-23
1.62911e-23
2.39572e-22
1.69835e-22
-1.95622e-21
-9.23259e-21
-2.01612e-20
-8.35165e-21
1.12124e-19
4.90832e-19
1.16558e-18
1.42647e-18
-1.53851e-18
-1.43612e-17
-4.73558e-17
-1.06673e-16
-1.67988e-16
-1.17742e-16
3.4676e-16
1.84204e-15
5.37335e-15
1.21839e-14
2.30636e-14
3.66568e-14
4.62403e-14
3.4562e-14
-3.31931e-14
-2.17257e-13
-6.0931e-13
-1.33186e-12
-2.52367e-12
-4.30158e-12
-6.68788e-12
-9.49324e-12
-1.21491e-11
-1.34922e-11
-1.15178e-11
-3.13461e-12
1.60184e-11
5.16152e-11
1.10439e-10
1.99809e-10
3.26516e-10
4.95149e-10
7.05726e-10
9.5062e-10
1.21083e-09
1.4518e-09
1.61908e-09
1.6343e-09
1.39211e-09
7.58812e-10
-4.26414e-10
-2.34674e-09
-5.19841e-09
-9.17615e-09
-1.44524e-08
-2.11499e-08
-2.93082e-08
-3.88428e-08
-4.94999e-08
-6.08066e-08
-7.20197e-08
-8.20746e-08
-8.95393e-08
-9.25756e-08
-8.89137e-08
-7.58444e-08
-5.02347e-08
-8.57255e-09
5.29523e-08
1.38322e-07
2.51508e-07
3.96201e-07
5.75362e-07
7.90211e-07
1.0374e-06
1.31351e-06
1.61229e-06
1.92487e-06
2.23964e-06
2.5423e-06
2.81607e-06
3.04199e-06
3.19941e-06
3.2666e-06
3.22143e-06
3.0422e-06
2.70845e-06
2.20183e-06
1.50697e-06
6.12198e-07
-4.89784e-07
-1.80137e-06
-3.31973e-06
-5.03661e-06
-6.9384e-06
-9.0064e-06
-1.12172e-05
-1.35433e-05
-1.59539e-05
-1.84161e-05
-2.08953e-05
-2.3357e-05
-2.57673e-05
-2.80939e-05
-3.03073e-05
-3.23807e-05
-3.42915e-05
-3.60212e-05
-3.75561e-05
-3.88877e-05
-4.00115e-05
-4.09266e-05
-4.16357e-05
-4.21451e-05
-4.24644e-05
-4.26055e-05
-4.2581e-05
-4.24025e-05
-4.20827e-05
-4.1636e-05
-4.10742e-05
-4.04059e-05
-3.96403e-05
-3.87871e-05
-3.7846e-05
-3.68231e-05
-3.57329e-05
-3.45609e-05
-3.33114e-05
-3.19963e-05
-3.05982e-05
-2.9148e-05
-2.76157e-05
-2.599e-05
-2.43347e-05
-2.26473e-05
-2.0684e-05
-1.84652e-05
-1.63055e-05
-1.42833e-05
-1.24004e-05
-1.06543e-05
-9.04256e-06
-7.56171e-06
-6.20634e-06
-4.96685e-06
-3.83312e-06
-2.78396e-06
-1.81404e-06
-8.94339e-07
-8.2667e-08
3.15006e-07
1.94552e-19
-2.75806e-20
1.95649e-20
-1.98023e-20
-7.45107e-20
-1.32354e-19
-1.75151e-19
-1.96018e-19
-1.97298e-19
-1.84619e-19
-1.63798e-19
-1.39663e-19
-1.15609e-19
-9.36054e-20
-7.45216e-20
-5.85142e-20
-4.5355e-20
-3.46632e-20
-2.60408e-20
-1.91327e-20
-1.36431e-20
-9.3287e-21
-5.98813e-21
-3.45108e-21
-1.56584e-21
-1.81903e-22
8.46716e-22
1.52972e-21
1.33455e-21
-1.19581e-21
-6.81997e-21
-7.2799e-21
3.3289e-20
1.91776e-19
5.21738e-19
7.46163e-19
-4.85928e-19
-6.63331e-18
-2.31872e-17
-5.23674e-17
-7.45665e-17
-6.15039e-18
3.70334e-16
1.47912e-15
3.93549e-15
8.2301e-15
1.37393e-14
1.65369e-14
5.474e-15
-4.36514e-14
-1.74996e-13
-4.57803e-13
-9.83766e-13
-1.8464e-12
-3.08772e-12
-4.594e-12
-5.92284e-12
-6.05008e-12
-3.04279e-12
6.30524e-12
2.67934e-11
6.49481e-11
1.28761e-10
2.26753e-10
3.66047e-10
5.49113e-10
7.68906e-10
1.00229e-09
1.20182e-09
1.28648e-09
1.13227e-09
5.64284e-10
-6.47491e-10
-2.78588e-09
-6.17439e-09
-1.11517e-08
-1.80295e-08
-2.70305e-08
-3.82053e-08
-5.13286e-08
-6.57762e-08
-8.03907e-08
-9.33422e-08
-1.01999e-07
-1.02827e-07
-9.1329e-08
-6.20591e-08
-8.72395e-09
7.56001e-08
1.98114e-07
3.6579e-07
5.84707e-07
8.59215e-07
1.19094e-06
1.57767e-06
2.01209e-06
2.48048e-06
2.96139e-06
3.42436e-06
3.82872e-06
4.12247e-06
4.24076e-06
4.11342e-06
3.66834e-06
2.83038e-06
1.52567e-06
-3.14939e-07
-2.75186e-06
-5.83276e-06
-9.58859e-06
-1.403e-05
-1.91444e-05
-2.48933e-05
-3.12114e-05
-3.80057e-05
-4.51567e-05
-5.25198e-05
-5.99289e-05
-6.71999e-05
-7.41358e-05
-8.05333e-05
-8.6188e-05
-9.09016e-05
-9.44883e-05
-9.67813e-05
-9.76392e-05
-9.6951e-05
-9.46404e-05
-9.06701e-05
-8.5043e-05
-7.78044e-05
-6.9041e-05
-5.88786e-05
-4.74802e-05
-3.50404e-05
-2.17813e-05
-7.94488e-06
6.21329e-06
2.04297e-05
3.44388e-05
4.79806e-05
6.08114e-05
7.27113e-05
8.34838e-05
9.2949e-05
0.000100944
0.000107361
0.000112146
0.000115256
0.000116638
0.000116317
0.00011441
0.000110923
0.000105918
9.96693e-05
9.22334e-05
8.37215e-05
7.44468e-05
6.44747e-05
5.40357e-05
4.34629e-05
3.2638e-05
2.19455e-05
1.18778e-05
2.10291e-06
-7.20861e-06
-1.53795e-05
-2.22234e-05
-2.77431e-05
-3.19913e-05
-3.50411e-05
-3.69755e-05
-3.78798e-05
-3.7827e-05
-3.68693e-05
-3.49721e-05
-3.20844e-05
-2.76416e-05
-2.19121e-05
-9.61472e-06
1.59669e-18
1.92245e-20
4.45275e-19
1.53854e-18
2.54572e-18
3.1694e-18
3.41341e-18
3.37581e-18
3.15813e-18
2.83856e-18
2.47497e-18
2.1082e-18
1.7641e-18
1.45633e-18
1.18989e-18
9.64238e-19
7.7576e-19
6.19551e-19
4.90582e-19
3.84299e-19
2.96871e-19
2.25184e-19
1.66727e-19
1.19449e-19
8.16518e-20
5.19153e-20
2.90023e-20
1.15148e-20
-2.84193e-21
-1.7442e-20
-3.22316e-20
-2.6771e-20
6.99848e-20
3.80383e-19
8.98826e-19
8.48408e-19
-2.62453e-18
-1.56927e-17
-4.5609e-17
-8.6599e-17
-8.01659e-17
1.61932e-16
1.05754e-15
3.28557e-15
7.50425e-15
1.32808e-14
1.65196e-14
4.63606e-15
-5.07447e-14
-2.0211e-13
-5.30523e-13
-1.13575e-12
-2.09408e-12
-3.35809e-12
-4.56787e-12
-4.74778e-12
-1.88375e-12
7.57728e-12
2.91839e-11
7.06573e-11
1.41408e-10
2.50866e-10
4.04972e-10
6.0016e-10
8.14275e-10
9.94265e-10
1.04115e-09
7.93847e-10
1.46899e-11
-1.61861e-09
-4.50838e-09
-9.11188e-09
-1.58868e-08
-2.51985e-08
-3.71828e-08
-5.15586e-08
-6.7395e-08
-8.28423e-08
-9.48479e-08
-9.88898e-08
-8.8775e-08
-5.65574e-08
7.35432e-09
1.13833e-07
2.7434e-07
4.99848e-07
7.99341e-07
1.17789e-06
1.63434e-06
2.15866e-06
2.72918e-06
3.30978e-06
3.84738e-06
4.27001e-06
4.48566e-06
4.38241e-06
3.82997e-06
2.68313e-06
7.87326e-07
-2.01275e-06
-5.85925e-06
-1.08517e-05
-1.70501e-05
-2.44701e-05
-3.30623e-05
-4.27036e-05
-5.31882e-05
-6.42221e-05
-7.54214e-05
-8.63149e-05
-9.63502e-05
-0.000104905
-0.000111303
-0.000114832
-0.000114769
-0.000110406
-0.000101073
-8.61677e-05
-6.51836e-05
-3.77298e-05
-3.55256e-06
3.7449e-05
8.52124e-05
0.000139507
0.000199937
0.000265944
0.000336828
0.000411763
0.00048982
0.000570007
0.000651289
0.000732619
0.000812967
0.00089134
0.000966806
0.00103852
0.00110577
0.00116795
0.0012246
0.00127537
0.00131998
0.00135831
0.00139034
0.00141622
0.00143612
0.0014502
0.00145866
0.00146187
0.00146016
0.00145371
0.00144274
0.00142767
0.00140841
0.00138498
0.00135799
0.00132705
0.00129197
0.00125326
0.00121038
0.00116317
0.00111227
0.00105683
0.000997082
0.000934681
0.000868918
0.000799408
0.000728139
0.00065686
0.000586683
0.000518364
0.000452459
0.000389372
0.00032935
0.000272443
0.000218545
0.000167213
0.000118171
7.06517e-05
2.63956e-05
-1.52211e-05
-6.93817e-19
1.12949e-18
-1.4779e-17
-3.01985e-17
-3.80527e-17
-4.0218e-17
-3.91295e-17
-3.63422e-17
-3.27839e-17
-2.89612e-17
-2.51709e-17
-2.15941e-17
-1.83356e-17
-1.54441e-17
-1.29282e-17
-1.07707e-17
-8.93852e-18
-7.39166e-18
-6.08884e-18
-4.9915e-18
-4.06602e-18
-3.28445e-18
-2.62428e-18
-2.06753e-18
-1.59974e-18
-1.20902e-18
-8.85262e-19
-6.2005e-19
-4.07262e-19
-2.43545e-19
-1.23424e-19
-1.79815e-20
1.68443e-19
6.16673e-19
1.39449e-18
1.64282e-18
-2.21103e-18
-1.8419e-17
-5.76001e-17
-1.14611e-16
-1.15192e-16
1.8908e-16
1.35373e-15
4.25936e-15
9.63436e-15
1.63559e-14
1.74944e-14
-6.81451e-15
-9.93119e-14
-3.34574e-13
-8.16552e-13
-1.64408e-12
-2.81142e-12
-4.00104e-12
-4.22717e-12
-1.31548e-12
8.72738e-12
3.22727e-11
7.81815e-11
1.56841e-10
2.77229e-10
4.40917e-10
6.31896e-10
8.01478e-10
8.48433e-10
5.96139e-10
-2.29085e-10
-2.01107e-09
-5.23739e-09
-1.0459e-08
-1.81988e-08
-2.8793e-08
-4.21491e-08
-5.74173e-08
-7.25817e-08
-8.39998e-08
-8.59445e-08
-7.02343e-08
-2.60647e-08
5.98166e-08
2.02431e-07
4.17232e-07
7.17967e-07
1.11367e-06
1.60475e-06
2.17837e-06
2.80326e-06
3.4245e-06
3.95872e-06
4.29066e-06
4.27154e-06
3.72054e-06
2.42983e-06
1.74004e-07
-3.27566e-06
-8.13211e-06
-1.45688e-05
-2.26919e-05
-3.25102e-05
-4.3902e-05
-5.65789e-05
-7.00641e-05
-8.37306e-05
-9.67534e-05
-0.000108122
-0.000116654
-0.000121014
-0.000119755
-0.000111357
-9.42849e-05
-6.70499e-05
-2.82737e-05
2.32398e-05
8.84355e-05
0.000167941
0.000262005
0.000370445
0.000492612
0.000627359
0.000773043
0.000927529
0.00108823
0.00125215
0.00141596
0.0015761
0.00172884
0.00187045
0.00199728
0.0021059
0.00219324
0.00225672
0.00229435
0.0023048
0.00228749
0.00224259
0.00217104
0.00207455
0.0019555
0.00181699
0.00166263
0.00149645
0.00132267
0.00114552
0.00096929
0.00079837
0.000637231
0.000489486
0.000357918
0.000244996
0.000153713
8.61264e-05
4.21667e-05
2.22806e-05
2.74292e-05
5.66707e-05
0.000107868
0.000180215
0.000271452
0.000377539
0.000495851
0.00062213
0.00075284
0.000884088
0.00101012
0.00112817
0.00123491
0.00132566
0.00139735
0.00144839
0.00147821
0.00148692
0.00147512
0.00144361
0.00139307
0.00132393
0.00123497
0.00112521
0.000983984
0.000825824
0.000538799
-9.59614e-17
-6.07118e-17
1.77184e-16
3.10283e-16
3.4774e-16
3.40335e-16
3.15162e-16
2.83923e-16
2.52002e-16
2.21514e-16
1.93269e-16
1.67572e-16
1.44524e-16
1.24106e-16
1.06206e-16
9.06509e-17
7.72241e-17
6.56867e-17
5.57942e-17
4.73113e-17
4.00228e-17
3.37409e-17
2.83085e-17
2.35979e-17
1.9508e-17
1.59589e-17
1.28869e-17
1.02393e-17
7.97041e-18
6.03695e-18
4.39848e-18
3.03379e-18
1.9888e-18
1.4356e-18
1.58104e-18
1.98477e-18
-3.46786e-19
-1.39657e-17
-5.34657e-17
-1.25619e-16
-1.77557e-16
2.06346e-17
1.05156e-15
3.94674e-15
9.7755e-15
1.78365e-14
2.10969e-14
-2.41358e-15
-1.01892e-13
-3.64558e-13
-9.10151e-13
-1.83932e-12
-3.08821e-12
-4.12902e-12
-3.46508e-12
2.07531e-12
1.81098e-11
5.31646e-11
1.18107e-10
2.23409e-10
3.72701e-10
5.50929e-10
7.0577e-10
7.222e-10
3.92583e-10
-6.11414e-10
-2.75335e-09
-6.61497e-09
-1.28233e-08
-2.18934e-08
-3.39593e-08
-4.83712e-08
-6.31594e-08
-7.4392e-08
-7.54989e-08
-5.66913e-08
-4.66566e-09
9.71604e-08
2.67595e-07
5.25498e-07
8.86233e-07
1.35659e-06
1.9282e-06
2.5697e-06
3.21831e-06
3.77162e-06
4.08113e-06
3.94884e-06
3.12888e-06
1.33597e-06
-1.7379e-06
-6.39747e-06
-1.29085e-05
-2.14535e-05
-3.20799e-05
-4.46454e-05
-5.87625e-05
-7.37511e-05
-8.86016e-05
-0.000101963
-0.000112173
-0.00011734
-0.000115303
-0.000103751
-8.03198e-05
-4.2715e-05
1.11533e-05
8.30228e-05
0.00017413
0.000285071
0.000415668
0.000564867
0.000730662
0.000910044
0.00109901
0.00129258
0.00148489
0.00166928
0.00183848
0.00198472
0.00210001
0.00217625
0.00220554
0.00218034
0.00209376
0.00193974
0.0017133
0.00141067
0.00102947
0.000568752
2.9145e-05
-0.000587138
-0.00127624
-0.00203259
-0.00284899
-0.00371669
-0.0046258
-0.0055656
-0.00652457
-0.00749035
-0.0084498
-0.00938983
-0.0102985
-0.0111652
-0.0119798
-0.0127304
-0.0134074
-0.0140053
-0.0145204
-0.0149466
-0.0152768
-0.0155129
-0.015654
-0.015696
-0.0156395
-0.0154865
-0.0152371
-0.0148932
-0.0144586
-0.0139358
-0.0133298
-0.0126464
-0.0118914
-0.011078
-0.0102135
-0.00930589
-0.00837133
-0.00742745
-0.00649016
-0.00557295
-0.00468678
-0.00384022
-0.00303955
-0.0022886
-0.0015892
-0.000941411
-0.000345528
0.000192301
0.00066077
0.00103091
2.06839e-15
1.07019e-15
-1.11397e-15
-2.04391e-15
-2.2375e-15
-2.14202e-15
-1.95387e-15
-1.74485e-15
-1.54437e-15
-1.36142e-15
-1.1973e-15
-1.0508e-15
-9.20384e-16
-8.04647e-16
-7.02346e-16
-6.12301e-16
-5.33362e-16
-4.64387e-16
-4.04248e-16
-3.51847e-16
-3.06136e-16
-2.66151e-16
-2.31033e-16
-2.00045e-16
-1.72581e-16
-1.48155e-16
-1.26386e-16
-1.06982e-16
-8.97099e-17
-7.43871e-17
-6.08621e-17
-4.89981e-17
-3.86303e-17
-2.94852e-17
-2.11291e-17
-1.3275e-17
-7.1695e-18
-8.79718e-18
-3.2622e-17
-9.77445e-17
-1.94722e-16
-1.86471e-16
3.83726e-16
2.51074e-15
7.63794e-15
1.64083e-14
2.47256e-14
1.52375e-14
-5.6487e-14
-2.77095e-13
-7.77075e-13
-1.68543e-12
-2.97956e-12
-4.15207e-12
-3.62198e-12
2.11367e-12
1.94122e-11
5.79905e-11
1.29985e-10
2.45931e-10
4.05457e-10
5.80367e-10
6.88509e-10
5.59167e-10
-1.04813e-10
-1.75603e-09
-5.00131e-09
-1.05387e-08
-1.89924e-08
-3.06024e-08
-4.47331e-08
-5.91878e-08
-6.93635e-08
-6.73464e-08
-4.11416e-08
2.56705e-08
1.53454e-07
3.64746e-07
6.80724e-07
1.11551e-06
1.6681e-06
2.31216e-06
2.98417e-06
3.57133e-06
3.90105e-06
3.73444e-06
2.76699e-06
6.3933e-07
-3.03901e-06
-8.65059e-06
-1.65151e-05
-2.68194e-05
-3.95361e-05
-5.43349e-05
-7.04962e-05
-8.68356e-05
-0.000101649
-0.000112692
-0.000117202
-0.000111989
-9.36354e-05
-5.85321e-05
-3.14244e-06
7.57235e-05
0.000180608
0.000313075
0.000473378
0.000660143
0.000870081
0.00109777
0.00133553
0.00157333
0.00179894
0.0019981
0.00215483
0.00225196
0.00227163
0.00219603
0.00200805
0.00169211
0.00123483
0.000625751
-0.000142146
-0.00107195
-0.00216254
-0.00340843
-0.00479975
-0.00632242
-0.00795855
-0.00968711
-0.0114848
-0.0133268
-0.0151877
-0.0170424
-0.0188663
-0.020636
-0.0223309
-0.0239333
-0.0254295
-0.0268097
-0.0280665
-0.0291945
-0.0301924
-0.0310629
-0.0318139
-0.0324544
-0.0329878
-0.0334249
-0.03378
-0.0340696
-0.0342938
-0.0344689
-0.0346062
-0.0347069
-0.0347769
-0.0348182
-0.0348298
-0.0348082
-0.0347456
-0.0346318
-0.0344537
-0.0341964
-0.0338438
-0.0333806
-0.0327919
-0.0320632
-0.0311857
-0.0301569
-0.0289791
-0.0276591
-0.0262059
-0.0246299
-0.0229416
-0.0211478
-0.0192524
-0.0172451
-0.0151245
-0.0128113
-0.0105097
-0.00720039
-2.35648e-14
-1.01412e-14
3.76685e-15
9.53792e-15
1.10156e-14
1.076e-14
9.92611e-15
8.93542e-15
7.96712e-15
7.08238e-15
6.2932e-15
5.59254e-15
4.96947e-15
4.41441e-15
3.91978e-15
3.47941e-15
3.08804e-15
2.74093e-15
2.43365e-15
2.16196e-15
1.92178e-15
1.70918e-15
1.52045e-15
1.35219e-15
1.20136e-15
1.06539e-15
9.42172e-16
8.3006e-16
7.27791e-16
6.34419e-16
5.49228e-16
4.71655e-16
4.01249e-16
3.37683e-16
2.80818e-16
2.30719e-16
1.87096e-16
1.47212e-16
1.01524e-16
2.96412e-17
-9.05649e-17
-2.29289e-16
-1.5881e-16
8.05113e-16
4.03477e-15
1.12378e-14
2.22199e-14
2.86171e-14
1.39508e-15
-1.27348e-13
-4.79058e-13
-1.2126e-12
-2.42165e-12
-3.85787e-12
-4.3772e-12
-1.05108e-12
1.1949e-11
4.42245e-11
1.08707e-10
2.18014e-10
3.74891e-10
5.53613e-10
6.6993e-10
5.39925e-10
-1.66014e-10
-1.95839e-09
-5.5242e-09
-1.16397e-08
-2.09445e-08
-3.3517e-08
-4.82068e-08
-6.17135e-08
-6.74834e-08
-5.45981e-08
-6.97393e-09
9.66505e-08
2.81329e-07
5.72438e-07
9.8948e-07
1.53674e-06
2.19078e-06
2.8855e-06
3.49614e-06
3.82494e-06
3.59165e-06
2.43315e-06
-8.32572e-08
-4.42888e-06
-1.10619e-05
-2.03533e-05
-3.24927e-05
-4.73774e-05
-6.44931e-05
-8.27979e-05
-0.00010062
-0.000115587
-0.000124597
-0.000123847
-0.000108922
-7.49508e-05
-1.67604e-05
7.07041e-05
0.000191984
0.000350616
0.000548576
0.000785685
0.00105899
0.00136221
0.00168519
0.00201354
0.00232836
0.0026063
0.00281971
0.00293727
0.00292473
0.00274615
0.0023653
0.00174742
0.000861113
-0.000319521
-0.00181289
-0.00362795
-0.00576242
-0.00820149
-0.010917
-0.0138674
-0.0169979
-0.0202419
-0.0235226
-0.0267547
-0.0298485
-0.0327129
-0.0352598
-0.0374074
-0.0390841
-0.040231
-0.0408051
-0.0407809
-0.0401515
-0.0389317
-0.0371582
-0.034882
-0.0321637
-0.0290768
-0.0257045
-0.0221639
-0.0185337
-0.0149038
-0.0113672
-0.00802732
-0.00494097
-0.00218127
0.000189723
0.0021313
0.00360228
0.00457399
0.00503517
0.00497985
0.0044173
0.00336504
0.00185376
-7.44815e-05
-0.00236846
-0.00496081
-0.00778195
-0.0107572
-0.0138002
-0.0168221
-0.0197375
-0.0224696
-0.0249519
-0.0271288
-0.0289555
-0.0303948
-0.0314171
-0.0319786
-0.0320625
-0.0314798
-0.0305351
-0.0275338
1.78485e-13
6.49876e-14
-2.43424e-15
-3.37288e-14
-4.45407e-14
-4.59814e-14
-4.37862e-14
-4.02415e-14
-3.64167e-14
-3.27623e-14
-2.94386e-14
-2.64646e-14
-2.38078e-14
-2.14278e-14
-1.92911e-14
-1.73711e-14
-1.56462e-14
-1.40983e-14
-1.2711e-14
-1.14695e-14
-1.03595e-14
-9.36724e-15
-8.47943e-15
-7.68304e-15
-6.96566e-15
-6.3158e-15
-5.72327e-15
-5.17944e-15
-4.67736e-15
-4.21171e-15
-3.77858e-15
-3.37514e-15
-2.99941e-15
-2.64993e-15
-2.32554e-15
-2.02503e-15
-1.74712e-15
-1.49104e-15
-1.25898e-15
-1.06127e-15
-9.20859e-16
-8.61654e-16
-8.43099e-16
-5.8514e-16
7.35184e-16
4.73235e-15
1.33052e-14
2.57691e-14
3.10498e-14
-7.47641e-15
-1.72977e-13
-6.08691e-13
-1.48686e-12
-2.85985e-12
-4.28257e-12
-4.08785e-12
1.72074e-12
2.07332e-11
6.47963e-11
1.4847e-10
2.82601e-10
4.59401e-10
6.25316e-10
6.39851e-10
2.23645e-10
-1.09117e-09
-3.98053e-09
-9.27176e-09
-1.77462e-08
-2.97266e-08
-4.43818e-08
-5.87209e-08
-6.6333e-08
-5.60578e-08
-1.09541e-08
9.18722e-08
2.79825e-07
5.80907e-07
1.01654e-06
1.59057e-06
2.27453e-06
2.98998e-06
3.58985e-06
3.84216e-06
3.42e-06
1.90297e-06
-1.20485e-06
-6.43617e-06
-1.42979e-05
-2.51849e-05
-3.92713e-05
-5.63875e-05
-7.58888e-05
-9.65294e-05
-0.000116352
-0.000132607
-0.000141713
-0.000139263
-0.00012007
-7.81779e-05
-7.18115e-06
9.93952e-05
0.00024766
0.000442762
0.000688183
0.00098492
0.00133058
0.00171845
0.0021365
0.00256654
0.0029835
0.0033549
0.00364072
0.00379375
0.00376044
0.00348237
0.00289848
0.00194791
0.00057343
-0.00127441
-0.0036328
-0.00652208
-0.00994117
-0.0138635
-0.0182335
-0.0229647
-0.0279394
-0.03301
-0.0380029
-0.0427222
-0.046956
-0.0504846
-0.0530901
-0.0545664
-0.0547301
-0.0534274
-0.0505458
-0.0460185
-0.0398238
-0.031992
-0.0226178
-0.0118482
0.000146509
0.0131548
0.0269522
0.0412236
0.0557222
0.0701856
0.0843463
0.097958
0.110808
0.1227
0.13346
0.142961
0.151095
0.157781
0.162967
0.166621
0.168734
0.169312
0.168376
0.165968
0.162139
0.156967
0.150537
0.142949
0.134329
0.124822
0.114589
0.103791
0.0925904
0.0811388
0.0695724
0.0580063
0.0465334
0.0352168
0.0241275
0.0132558
0.00316743
-0.00829606
-1.02075e-12
-3.28953e-13
-5.2547e-14
9.57255e-14
1.59536e-13
1.7872e-13
1.77964e-13
1.68252e-13
1.55197e-13
1.41535e-13
1.28539e-13
1.16661e-13
1.05939e-13
9.6266e-14
8.75244e-14
7.96135e-14
7.2452e-14
6.59727e-14
6.01173e-14
5.48331e-14
5.00704e-14
4.57823e-14
4.19235e-14
3.84493e-14
3.53155e-14
3.24785e-14
2.98962e-14
2.75294e-14
2.53436e-14
2.33101e-14
2.14063e-14
1.96151e-14
1.79246e-14
1.63262e-14
1.48143e-14
1.33851e-14
1.20362e-14
1.07659e-14
9.57257e-15
8.45198e-15
7.39164e-15
6.36523e-15
5.34161e-15
4.34648e-15
3.6367e-15
4.01805e-15
7.1442e-15
1.51138e-14
2.77419e-14
3.48083e-14
6.12727e-16
-1.5795e-13
-5.86399e-13
-1.46221e-12
-2.84155e-12
-4.26485e-12
-3.99417e-12
2.15393e-12
2.21267e-11
6.82573e-11
1.55394e-10
2.93552e-10
4.71079e-10
6.24352e-10
5.92341e-10
6.06626e-11
-1.48863e-09
-4.78803e-09
-1.07016e-08
-1.9974e-08
-3.27285e-08
-4.7647e-08
-6.082e-08
-6.43628e-08
-4.50529e-08
1.65424e-08
1.45771e-07
3.71586e-07
7.21328e-07
1.21189e-06
1.83698e-06
2.55094e-06
3.2506e-06
3.75773e-06
3.80564e-06
3.03417e-06
9.97386e-07
-2.8123e-06
-8.92128e-06
-1.78124e-05
-2.9845e-05
-4.51594e-05
-6.35709e-05
-8.44578e-05
-0.000106647
-0.000128303
-0.000146819
-0.00015874
-0.000159702
-0.000144461
-0.00010681
-3.97531e-05
6.42493e-05
0.000212903
0.000413541
0.000672381
0.000993569
0.00137798
0.00182181
0.002315
0.0028395
0.00336765
0.00386063
0.0042674
0.00452425
0.00455531
0.00427433
0.00358781
0.00239968
0.000617105
-0.00184191
-0.00503985
-0.00901059
-0.0137503
-0.0192088
-0.025283
-0.0318109
-0.0385709
-0.0452851
-0.0516304
-0.0572415
-0.0617271
-0.0646863
-0.0657262
-0.0644864
-0.0606467
-0.0539594
-0.0442575
-0.031458
-0.0155674
0.00329608
0.0249065
0.0489803
0.0751531
0.102992
0.132027
0.161768
0.191718
0.22139
0.25032
0.278094
0.304346
0.32876
0.351088
0.371136
0.388765
0.403892
0.416472
0.426495
0.433978
0.438959
0.441487
0.441616
0.439411
0.434936
0.42826
0.419459
0.408628
0.395872
0.381308
0.365058
0.34724
0.327967
0.307324
0.285379
0.262084
0.237565
0.211074
0.185178
0.149062
4.82683e-12
1.49015e-12
4.16572e-13
-2.24723e-13
-5.44659e-13
-6.71287e-13
-7.01741e-13
-6.83752e-13
-6.43518e-13
-5.94949e-13
-5.45515e-13
-4.98767e-13
-4.5588e-13
-4.16845e-13
-3.8134e-13
-3.49021e-13
-3.19594e-13
-2.92817e-13
-2.68484e-13
-2.46407e-13
-2.26409e-13
-2.08323e-13
-1.91987e-13
-1.77245e-13
-1.63942e-13
-1.51927e-13
-1.41044e-13
-1.31139e-13
-1.22063e-13
-1.13682e-13
-1.05875e-13
-9.85502e-14
-9.16324e-14
-8.50685e-14
-7.88204e-14
-7.28618e-14
-6.71746e-14
-6.17457e-14
-5.65649e-14
-5.16241e-14
-4.69181e-14
-4.24496e-14
-3.82362e-14
-3.43081e-14
-3.06649e-14
-2.71321e-14
-2.3066e-14
-1.69907e-14
-6.6693e-15
9.05459e-15
2.42162e-14
1.26232e-14
-9.26719e-14
-4.18259e-13
-1.13755e-12
-2.36151e-12
-3.82763e-12
-4.26235e-12
-3.51476e-13
1.45205e-11
5.11042e-11
1.23205e-10
2.42107e-10
4.02888e-10
5.58781e-10
5.81408e-10
2.09816e-10
-9.98965e-10
-3.69006e-09
-8.65496e-09
-1.6635e-08
-2.79099e-08
-4.16079e-08
-5.47192e-08
-6.08833e-08
-4.91579e-08
-3.1482e-09
9.89488e-08
2.82704e-07
5.73532e-07
9.8997e-07
1.53403e-06
2.17912e-06
2.85672e-06
3.44368e-06
3.75257e-06
3.52728e-06
2.44601e-06
1.32456e-07
-3.8244e-06
-9.84265e-06
-1.83119e-05
-2.95486e-05
-4.37399e-05
-6.08691e-05
-8.0618e-05
-0.000102247
-0.00012448
-0.000145519
-0.0001626
-0.000172019
-0.000168855
-0.000146815
-9.81058e-05
-1.34287e-05
0.00011784
0.000307171
0.000566005
0.000904371
0.00132892
0.00184035
0.00243033
0.00307797
0.00374635
0.00437934
0.00489926
0.00520615
0.00517921
0.00468174
0.00356922
0.00169792
-0.00106098
-0.00480626
-0.00959041
-0.015404
-0.0221619
-0.0296929
-0.0377318
-0.0459106
-0.0537902
-0.0608564
-0.0665433
-0.0702603
-0.0714164
-0.0694643
-0.0639045
-0.0543419
-0.0404971
-0.022218
0.000504581
0.0275364
0.0586072
0.0933196
0.131169
0.171564
0.213848
0.257335
0.301331
0.345159
0.388179
0.429809
0.46954
0.506943
0.541677
0.573485
0.602201
0.627734
0.650059
0.669207
0.685259
0.698319
0.708513
0.715969
0.720806
0.723134
0.723042
0.720593
0.715838
0.708805
0.69951
0.687949
0.674101
0.657934
0.639368
0.61833
0.594539
0.568123
0.537464
0.506767
0.458945
-2.03843e-11
-6.542e-12
-2.28697e-12
3.8073e-13
1.85139e-12
2.5225e-12
2.76342e-12
2.77057e-12
2.65824e-12
2.49036e-12
2.30396e-12
2.11958e-12
1.94663e-12
1.78738e-12
1.64147e-12
1.50787e-12
1.38555e-12
1.27363e-12
1.1714e-12
1.07821e-12
9.93431e-13
9.16474e-13
8.46749e-13
7.83674e-13
7.26691e-13
6.75252e-13
6.28808e-13
5.86799e-13
5.48654e-13
5.13806e-13
4.81724e-13
4.51939e-13
4.24062e-13
3.97791e-13
3.72896e-13
3.49213e-13
3.26621e-13
3.05036e-13
2.84396e-13
2.6465e-13
2.45757e-13
2.27675e-13
2.10362e-13
1.93761e-13
1.77799e-13
1.62406e-13
1.47608e-13
1.3377e-13
1.21974e-13
1.14313e-13
1.13218e-13
1.18014e-13
1.1598e-13
6.58561e-14
-1.23258e-13
-6.0138e-13
-1.53443e-12
-2.93306e-12
-4.24928e-12
-3.64844e-12
3.02241e-12
2.32542e-11
6.80259e-11
1.49439e-10
2.73321e-10
4.2373e-10
5.36803e-10
4.63934e-10
-7.01519e-11
-1.49957e-09
-4.4124e-09
-9.46809e-09
-1.71873e-08
-2.75657e-08
-3.94842e-08
-4.99357e-08
-5.3163e-08
-3.98995e-08
2.99861e-09
9.21698e-08
2.46258e-07
4.83064e-07
8.153e-07
1.24525e-06
1.75896e-06
2.3208e-06
2.86939e-06
3.31512e-06
3.5392e-06
3.39282e-06
2.69422e-06
1.22184e-06
-1.29782e-06
-5.20555e-06
-1.09226e-05
-1.89497e-05
-2.98319e-05
-4.40426e-05
-6.1721e-05
-8.30095e-05
-0.000107629
-0.000134574
-0.000161651
-0.000184877
-0.000197789
-0.000190759
-0.000150483
-5.98866e-05
0.000101257
0.000354712
0.000720919
0.00121479
0.00184023
0.00258382
0.00340827
0.00424658
0.00499796
0.00552603
0.00565855
0.00520508
0.00396293
0.00173728
-0.00163628
-0.00626712
-0.0121849
-0.0193174
-0.0274751
-0.0363463
-0.0454712
-0.054288
-0.0621356
-0.0682839
-0.0719739
-0.0724561
-0.0690352
-0.0611137
-0.0482227
-0.0300524
-0.0064693
0.0224752
0.0565463
0.09534
0.138307
0.184778
0.233996
0.28515
0.33741
0.389962
0.44203
0.492901
0.541949
0.588638
0.632536
0.673316
0.710751
0.744713
0.775163
0.802136
0.825733
0.846111
0.863462
0.877997
0.889948
0.899537
0.906971
0.912434
0.916075
0.918013
0.918318
0.917018
0.914101
0.909504
0.903137
0.894843
0.88447
0.87162
0.856427
0.83699
0.817464
0.782516
8.21721e-11
2.85243e-11
1.11913e-11
1.99818e-13
-6.29798e-12
-9.54307e-12
-1.09326e-11
-1.12564e-11
-1.09979e-11
-1.04372e-11
-9.74359e-12
-9.0187e-12
-8.31942e-12
-7.66613e-12
-7.06215e-12
-6.50547e-12
-5.99273e-12
-5.52082e-12
-5.08721e-12
-4.6897e-12
-4.32623e-12
-3.99474e-12
-3.69314e-12
-3.41935e-12
-3.17128e-12
-2.94685e-12
-2.74407e-12
-2.56092e-12
-2.39534e-12
-2.24515e-12
-2.1082e-12
-1.98241e-12
-1.86596e-12
-1.75733e-12
-1.65532e-12
-1.55903e-12
-1.4678e-12
-1.38114e-12
-1.29871e-12
-1.22022e-12
-1.14547e-12
-1.07426e-12
-1.0064e-12
-9.417e-13
-8.79978e-13
-8.21065e-13
-7.64805e-13
-7.11013e-13
-6.59339e-13
-6.08945e-13
-5.58049e-13
-5.03709e-13
-4.42909e-13
-3.7703e-13
-3.22411e-13
-3.2853e-13
-4.99674e-13
-1.00265e-12
-2.02053e-12
-3.58418e-12
-5.19398e-12
-5.1633e-12
2.804e-13
1.78589e-11
5.73782e-11
1.29879e-10
2.41979e-10
3.8433e-10
5.12597e-10
5.21271e-10
2.14296e-10
-7.17928e-10
-2.69872e-09
-6.21964e-09
-1.17231e-08
-1.93906e-08
-2.88255e-08
-3.86482e-08
-4.60522e-08
-4.64191e-08
-3.31197e-08
2.35109e-09
6.97873e-08
1.79194e-07
3.39301e-07
5.55913e-07
8.30479e-07
1.15936e-06
1.53419e-06
1.94332e-06
2.37378e-06
2.8115e-06
3.23636e-06
3.60629e-06
3.82539e-06
3.7006e-06
2.94481e-06
1.05192e-06
-2.80673e-06
-9.81617e-06
-2.15658e-05
-3.98872e-05
-6.64195e-05
-0.000101793
-0.000144359
-0.000188704
-0.000224088
-0.000233164
-0.000191574
-6.89525e-05
0.000168113
0.000550861
0.00110089
0.0018209
0.0026847
0.00362776
0.00454062
0.00526981
0.00560684
0.00531831
0.00415457
0.00187618
-0.00171484
-0.00674161
-0.0132199
-0.0210306
-0.0299002
-0.0393916
-0.0489145
-0.0577416
-0.065043
-0.0699308
-0.0715115
-0.0689408