/*--------------------------------*- C++ -*----------------------------------*\
| =========                 |                                                 |
| \\      /  F ield         | OpenFOAM: The Open Source CFD Toolbox           |
|  \\    /   O peration     | Version:  4.1                                   |
|   \\  /    A nd           | Web:      www.OpenFOAM.org                      |
|    \\/     M anipulation  |                                                 |
\*---------------------------------------------------------------------------*/
FoamFile
{
    version     2.0;
    format      ascii;
    class       volScalarField;
    location    "0.075";
    object      T;
}
// * * * * * * * * * * * * * * * * * * * * * * * * * * * * * * * * * * * * * //

dimensions      [0 0 0 1 0 0 0];

internalField   nonuniform List<scalar> 
12225
(
0.625082
0.501659
0.482429
0.479445
0.478893
0.478746
0.478693
0.478669
0.478656
0.478647
0.478639
0.478626
0.478594
0.478516
0.478321
0.477838
0.476625
0.473565
0.617081
0.498208
0.480748
0.478495
0.478335
0.47841
0.478486
0.478541
0.478578
0.478601
0.478615
0.478616
0.478594
0.478525
0.478341
0.477883
0.476762
0.474034
0.621282
0.500687
0.482151
0.479347
0.478884
0.478769
0.478724
0.4787
0.478684
0.478673
0.478663
0.478649
0.478618
0.478545
0.478369
0.477948
0.476973
0.474812
0.621277
0.500416
0.481761
0.479003
0.478628
0.478587
0.478593
0.478605
0.478616
0.478623
0.478627
0.478622
0.4786
0.478538
0.478383
0.478019
0.477214
0.475561
0.621238
0.500487
0.481847
0.479071
0.47869
0.478643
0.47864
0.478643
0.478646
0.478647
0.478646
0.478638
0.478616
0.478559
0.478424
0.478118
0.477478
0.476257
0.621177
0.50051
0.481888
0.479083
0.478687
0.478637
0.478634
0.478638
0.478641
0.478643
0.478643
0.478637
0.478618
0.47857
0.478458
0.478213
0.477725
0.476848
0.621178
0.500547
0.481941
0.479115
0.478704
0.47865
0.478645
0.478646
0.478649
0.47865
0.47865
0.478644
0.478628
0.478588
0.478497
0.478309
0.47795
0.477335
0.621179
0.500558
0.481969
0.479137
0.478717
0.478659
0.478652
0.478652
0.478654
0.478655
0.478654
0.478649
0.478636
0.478602
0.47853
0.478383
0.478112
0.477663
0.621177
0.500563
0.481988
0.479156
0.478731
0.478669
0.47866
0.478659
0.47866
0.47866
0.478659
0.478654
0.478643
0.478615
0.478557
0.478443
0.478237
0.477904
0.621174
0.500565
0.482002
0.479173
0.478745
0.47868
0.478669
0.478667
0.478667
0.478666
0.478665
0.478661
0.478651
0.478629
0.478585
0.478499
0.478349
0.478113
0.621171
0.500564
0.482012
0.479188
0.478759
0.478692
0.47868
0.478676
0.478675
0.478674
0.478671
0.478668
0.478661
0.478644
0.478611
0.478551
0.478447
0.478287
0.621167
0.500561
0.482017
0.479198
0.478771
0.478704
0.47869
0.478686
0.478684
0.478682
0.47868
0.478676
0.478671
0.478659
0.478636
0.478595
0.478527
0.478425
0.621164
0.500557
0.482019
0.479205
0.47878
0.478714
0.4787
0.478696
0.478692
0.47869
0.478688
0.478685
0.478681
0.478672
0.478657
0.478632
0.478589
0.478528
0.621161
0.500553
0.482019
0.479209
0.478786
0.47872
0.478708
0.478704
0.478701
0.478698
0.478696
0.478694
0.47869
0.478685
0.478675
0.47866
0.478636
0.478602
0.621158
0.500549
0.482017
0.47921
0.478789
0.478725
0.478713
0.47871
0.478708
0.478706
0.478704
0.478701
0.478699
0.478695
0.478689
0.478681
0.478668
0.478651
0.621156
0.500546
0.482015
0.479209
0.47879
0.478728
0.478717
0.478714
0.478712
0.47871
0.478709
0.478708
0.478706
0.478703
0.4787
0.478695
0.478688
0.47868
0.621154
0.500544
0.482013
0.479208
0.47879
0.478728
0.478718
0.478716
0.478714
0.478714
0.478712
0.478711
0.47871
0.478709
0.478707
0.478704
0.4787
0.478696
0.621154
0.500543
0.482012
0.479208
0.47879
0.478728
0.478718
0.478715
0.478714
0.478714
0.478713
0.478712
0.478711
0.478709
0.478707
0.478706
0.478704
0.478703
0.621154
0.500543
0.482012
0.479207
0.478789
0.478728
0.478718
0.478714
0.478712
0.478712
0.47871
0.478709
0.478708
0.478707
0.478706
0.478704
0.478703
0.478703
0.621154
0.500544
0.482012
0.479207
0.478788
0.478725
0.478715
0.478711
0.478709
0.478707
0.478706
0.478705
0.478704
0.478703
0.478702
0.478701
0.4787
0.478701
0.621154
0.500545
0.482014
0.479206
0.478784
0.47872
0.478709
0.478705
0.478703
0.478701
0.478699
0.478698
0.478697
0.478697
0.478696
0.478695
0.478694
0.478695
0.621154
0.500547
0.482015
0.479204
0.47878
0.478714
0.478702
0.478698
0.478696
0.478694
0.478693
0.478692
0.478692
0.478691
0.478691
0.478691
0.478689
0.47869
0.621152
0.500551
0.482014
0.479195
0.478767
0.478701
0.478689
0.478685
0.478684
0.478683
0.478683
0.478682
0.478682
0.478683
0.478682
0.478682
0.478682
0.478683
0.621147
0.500559
0.482014
0.479187
0.478759
0.478694
0.478684
0.478681
0.478681
0.47868
0.47868
0.47868
0.478681
0.478681
0.478681
0.478681
0.478681
0.478682
0.621134
0.500551
0.481983
0.479149
0.478725
0.478665
0.478657
0.478657
0.478658
0.47866
0.478662
0.478664
0.478665
0.478667
0.478669
0.47867
0.478671
0.478673
0.621195
0.500594
0.48198
0.479154
0.478749
0.478696
0.478689
0.478687
0.478686
0.478685
0.478684
0.478682
0.478681
0.47868
0.47868
0.47868
0.478679
0.47868
0.621276
0.500532
0.481808
0.478971
0.478582
0.478548
0.478561
0.47858
0.478597
0.478611
0.478622
0.478631
0.478639
0.478645
0.478651
0.478655
0.478659
0.478661
0.621626
0.501078
0.482445
0.479563
0.479064
0.478923
0.47885
0.478804
0.478771
0.478747
0.47873
0.478716
0.478707
0.4787
0.478695
0.478691
0.47869
0.478684
0.617042
0.497852
0.480426
0.478232
0.478138
0.478261
0.478372
0.478454
0.478512
0.478553
0.478582
0.478604
0.47862
0.478632
0.478642
0.47865
0.478659
0.478657
0.625111
0.502056
0.482622
0.479575
0.479005
0.478839
0.47877
0.478733
0.478711
0.478697
0.478687
0.47868
0.478676
0.478673
0.478671
0.478671
0.478674
0.478662
0.329328
0.329323
0.329293
0.329253
0.329209
0.329156
0.329097
0.32903
0.328954
0.328872
0.328785
0.328693
0.328595
0.328493
0.328386
0.328276
0.328164
0.328048
0.327932
0.327815
0.327698
0.327582
0.327468
0.327357
0.327249
0.327146
0.327048
0.326956
0.326871
0.326794
0.326725
0.326666
0.326617
0.32658
0.326553
0.326539
0.326538
0.326551
0.326577
0.326618
0.326675
0.326746
0.326834
0.326937
0.327057
0.327194
0.327346
0.327516
0.327702
0.327905
0.328125
0.32836
0.328612
0.32888
0.329163
0.329461
0.329774
0.330101
0.330442
0.330796
0.331162
0.33154
0.33193
0.33233
0.33274
0.333159
0.333587
0.334024
0.334467
0.334917
0.335373
0.335835
0.336301
0.336772
0.337246
0.337723
0.338202
0.338684
0.339166
0.33965
0.340133
0.340617
0.3411
0.341581
0.342062
0.34254
0.343016
0.343489
0.343959
0.344425
0.344888
0.345346
0.3458
0.346249
0.346693
0.347131
0.347564
0.347991
0.348411
0.348825
0.349233
0.349634
0.350029
0.350416
0.350796
0.351169
0.351535
0.351893
0.352245
0.352588
0.352924
0.353253
0.353574
0.353887
0.354192
0.35449
0.354779
0.355061
0.355334
0.355599
0.355855
0.356103
0.356343
0.356574
0.356796
0.357009
0.357213
0.357408
0.357593
0.35777
0.357936
0.358093
0.358241
0.358378
0.358506
0.358623
0.358729
0.358826
0.358912
0.358987
0.359051
0.359105
0.359147
0.359178
0.359198
0.359206
0.359202
0.359187
0.35916
0.359121
0.35907
0.359007
0.358932
0.358844
0.358745
0.358632
0.358508
0.358371
0.358221
0.35806
0.357883
0.357695
0.357499
0.357275
0.357039
0.35679
0.356516
0.356232
0.355936
0.355629
0.35531
0.35498
0.354639
0.354286
0.353925
0.353551
0.353181
0.352774
0.352505
0.351578
0.329743
0.329729
0.329712
0.329686
0.329651
0.329608
0.329557
0.329497
0.329427
0.329349
0.329262
0.329169
0.32907
0.328965
0.328856
0.328743
0.328628
0.32851
0.32839
0.32827
0.32815
0.328032
0.327915
0.327801
0.32769
0.327584
0.327484
0.32739
0.327302
0.327223
0.327152
0.32709
0.327039
0.326999
0.32697
0.326954
0.32695
0.32696
0.326984
0.327023
0.327076
0.327145
0.32723
0.327331
0.327448
0.327582
0.327732
0.327898
0.328082
0.328282
0.328498
0.328731
0.32898
0.329245
0.329524
0.329819
0.330129
0.330453
0.33079
0.331141
0.331504
0.331878
0.332265
0.332662
0.333069
0.333485
0.33391
0.334342
0.334783
0.33523
0.335683
0.336141
0.336605
0.337072
0.337543
0.338017
0.338493
0.338972
0.339452
0.339932
0.340413
0.340894
0.341374
0.341853
0.34233
0.342806
0.343279
0.343749
0.344217
0.34468
0.34514
0.345596
0.346047
0.346493
0.346934
0.34737
0.3478
0.348224
0.348641
0.349053
0.349457
0.349856
0.350247
0.350632
0.351009
0.351379
0.351742
0.352098
0.352446
0.352787
0.35312
0.353446
0.353763
0.354074
0.354376
0.35467
0.354956
0.355234
0.355504
0.355766
0.356019
0.356263
0.356499
0.356727
0.356945
0.357154
0.357355
0.357546
0.357728
0.3579
0.358063
0.358217
0.35836
0.358493
0.358617
0.35873
0.358832
0.358925
0.359006
0.359077
0.359137
0.359187
0.359224
0.359251
0.359266
0.35927
0.359262
0.359242
0.35921
0.359166
0.359111
0.359043
0.358962
0.35887
0.358764
0.358647
0.358516
0.358374
0.358217
0.358049
0.357866
0.357671
0.357467
0.357242
0.357008
0.356767
0.356507
0.356235
0.35595
0.355653
0.355344
0.355023
0.354691
0.354347
0.353994
0.35363
0.353269
0.352881
0.352587
0.35189
0.330588
0.330552
0.330524
0.330493
0.330455
0.330407
0.330349
0.330282
0.330207
0.330123
0.330031
0.329933
0.32983
0.329721
0.329608
0.329491
0.329371
0.32925
0.329127
0.329004
0.328881
0.32876
0.32864
0.328523
0.32841
0.328302
0.328199
0.328101
0.328011
0.327929
0.327855
0.327791
0.327736
0.327693
0.327661
0.327641
0.327633
0.32764
0.32766
0.327694
0.327744
0.327808
0.327888
0.327985
0.328097
0.328226
0.328371
0.328532
0.328711
0.328905
0.329116
0.329344
0.329587
0.329846
0.330121
0.33041
0.330714
0.331032
0.331364
0.331709
0.332067
0.332436
0.332817
0.333208
0.33361
0.334021
0.334441
0.334869
0.335305
0.335747
0.336196
0.33665
0.33711
0.337573
0.33804
0.338511
0.338984
0.339459
0.339936
0.340414
0.340892
0.341371
0.341849
0.342326
0.342802
0.343276
0.343748
0.344218
0.344685
0.345148
0.345608
0.346063
0.346515
0.346961
0.347403
0.347839
0.34827
0.348695
0.349114
0.349527
0.349933
0.350333
0.350726
0.351112
0.351491
0.351863
0.352228
0.352585
0.352935
0.353278
0.353613
0.353941
0.35426
0.354572
0.354877
0.355173
0.355461
0.355741
0.356013
0.356276
0.356531
0.356777
0.357015
0.357244
0.357464
0.357674
0.357876
0.358069
0.358252
0.358425
0.358589
0.358743
0.358887
0.359022
0.359145
0.359259
0.359362
0.359455
0.359536
0.359607
0.359667
0.359716
0.359753
0.359779
0.359793
0.359796
0.359787
0.359766
0.359733
0.359688
0.35963
0.359561
0.359478
0.359384
0.359276
0.359156
0.359023
0.358878
0.358718
0.358548
0.358363
0.358166
0.357957
0.357732
0.357497
0.357255
0.356997
0.356726
0.356443
0.356147
0.355838
0.355518
0.355186
0.354842
0.354489
0.354125
0.35376
0.353371
0.35305
0.352476
0.331834
0.33178
0.331741
0.331705
0.331659
0.331603
0.331538
0.331463
0.33138
0.33129
0.331193
0.331089
0.33098
0.330866
0.330747
0.330626
0.330501
0.330375
0.330247
0.330119
0.329992
0.329866
0.329742
0.32962
0.329503
0.329389
0.329282
0.32918
0.329085
0.328997
0.328918
0.328849
0.328789
0.32874
0.328702
0.328676
0.328663
0.328662
0.328676
0.328704
0.328746
0.328804
0.328877
0.328966
0.32907
0.329191
0.329328
0.329482
0.329652
0.329838
0.330041
0.33026
0.330495
0.330745
0.331011
0.331292
0.331587
0.331897
0.33222
0.332556
0.332905
0.333266
0.333639
0.334023
0.334416
0.33482
0.335232
0.335653
0.336081
0.336516
0.336958
0.337406
0.337859
0.338316
0.338778
0.339243
0.339711
0.340182
0.340654
0.341128
0.341602
0.342078
0.342553
0.343027
0.343501
0.343973
0.344444
0.344913
0.345378
0.345842
0.346301
0.346758
0.34721
0.347657
0.348101
0.348539
0.348971
0.349399
0.34982
0.350235
0.350645
0.351048
0.351444
0.351833
0.352216
0.352592
0.35296
0.353322
0.353676
0.354023
0.354362
0.354694
0.355018
0.355334
0.355642
0.355943
0.356235
0.356519
0.356795
0.357063
0.357322
0.357572
0.357814
0.358047
0.358271
0.358485
0.358691
0.358887
0.359074
0.35925
0.359418
0.359575
0.359722
0.359859
0.359985
0.360101
0.360207
0.360301
0.360385
0.360457
0.360519
0.360569
0.360608
0.360634
0.36065
0.360653
0.360644
0.360623
0.36059
0.360545
0.360487
0.360417
0.360334
0.360238
0.36013
0.360009
0.359874
0.359727
0.359567
0.359394
0.359208
0.359009
0.358798
0.358572
0.358335
0.358088
0.357827
0.357554
0.357267
0.356969
0.356658
0.356334
0.355999
0.355652
0.355294
0.354926
0.354554
0.354157
0.353817
0.353301
0.333476
0.33341
0.333365
0.333322
0.33327
0.333207
0.333134
0.333052
0.332962
0.332864
0.332759
0.332649
0.332532
0.332411
0.332286
0.332157
0.332026
0.331894
0.33176
0.331625
0.331492
0.331359
0.331229
0.331101
0.330977
0.330858
0.330743
0.330635
0.330533
0.330439
0.330354
0.330277
0.33021
0.330153
0.330107
0.330074
0.330052
0.330043
0.330048
0.330067
0.330101
0.330149
0.330212
0.330291
0.330386
0.330496
0.330623
0.330766
0.330925
0.331101
0.331292
0.3315
0.331723
0.331962
0.332217
0.332486
0.33277
0.333068
0.33338
0.333705
0.334043
0.334393
0.334755
0.335128
0.335511
0.335904
0.336306
0.336717
0.337135
0.337561
0.337994
0.338433
0.338878
0.339327
0.339781
0.340239
0.3407
0.341164
0.34163
0.342098
0.342567
0.343038
0.343508
0.343979
0.34445
0.344919
0.345387
0.345854
0.346319
0.346781
0.34724
0.347697
0.348149
0.348598
0.349042
0.349482
0.349917
0.350347
0.350771
0.35119
0.351602
0.352009
0.352409
0.352802
0.353189
0.353569
0.353942
0.354308
0.354667
0.355018
0.355363
0.355699
0.356028
0.35635
0.356663
0.356969
0.357266
0.357556
0.357837
0.35811
0.358374
0.358629
0.358876
0.359113
0.359342
0.359561
0.359771
0.359972
0.360163
0.360344
0.360515
0.360676
0.360826
0.360967
0.361096
0.361216
0.361324
0.361421
0.361507
0.361582
0.361645
0.361697
0.361737
0.361765
0.361781
0.361786
0.361777
0.361757
0.361724
0.361678
0.36162
0.361549
0.361465
0.361368
0.361259
0.361136
0.361
0.360851
0.360689
0.360514
0.360325
0.360124
0.359909
0.359681
0.359441
0.35919
0.358926
0.358648
0.358358
0.358056
0.357741
0.357414
0.357074
0.356723
0.35636
0.355986
0.355606
0.355202
0.35485
0.354353
0.335528
0.335456
0.335404
0.335355
0.335297
0.335227
0.335147
0.335057
0.334958
0.334852
0.334739
0.33462
0.334495
0.334366
0.334233
0.334096
0.333957
0.333816
0.333675
0.333532
0.333391
0.333251
0.333112
0.332977
0.332845
0.332717
0.332595
0.332478
0.332368
0.332265
0.332171
0.332085
0.332009
0.331943
0.331887
0.331844
0.331812
0.331793
0.331787
0.331795
0.331817
0.331853
0.331905
0.331971
0.332053
0.332151
0.332265
0.332395
0.332541
0.332703
0.332881
0.333075
0.333284
0.333509
0.33375
0.334005
0.334275
0.334559
0.334857
0.335168
0.335492
0.335829
0.336177
0.336536
0.336906
0.337286
0.337675
0.338074
0.33848
0.338895
0.339316
0.339744
0.340177
0.340617
0.34106
0.341509
0.341961
0.342416
0.342874
0.343335
0.343797
0.344261
0.344725
0.345191
0.345656
0.346122
0.346586
0.34705
0.347512
0.347973
0.348431
0.348886
0.349338
0.349788
0.350233
0.350674
0.351111
0.351543
0.351969
0.352391
0.352806
0.353216
0.35362
0.354018
0.354409
0.354793
0.355171
0.355541
0.355905
0.356262
0.356611
0.356953
0.357287
0.357614
0.357933
0.358244
0.358547
0.358842
0.359129
0.359407
0.359677
0.359937
0.360189
0.360432
0.360666
0.360891
0.361105
0.361311
0.361506
0.361692
0.361867
0.362032
0.362187
0.362331
0.362464
0.362586
0.362698
0.362798
0.362886
0.362963
0.363029
0.363082
0.363124
0.363153
0.36317
0.363175
0.363167
0.363147
0.363114
0.363068
0.363008
0.362936
0.362852
0.362753
0.362642
0.362518
0.362379
0.362228
0.362063
0.361885
0.361693
0.361489
0.361271
0.361039
0.360796
0.36054
0.360271
0.35999
0.359695
0.359389
0.359069
0.358737
0.358393
0.358037
0.357669
0.357288
0.356901
0.356489
0.356127
0.35563
0.338
0.337926
0.33787
0.337816
0.337752
0.337675
0.337586
0.337488
0.337382
0.337267
0.337145
0.337016
0.336882
0.336743
0.336601
0.336455
0.336306
0.336156
0.336005
0.335853
0.335702
0.335552
0.335404
0.335259
0.335118
0.33498
0.334848
0.334721
0.334601
0.334488
0.334383
0.334286
0.334198
0.334121
0.334054
0.333998
0.333954
0.333923
0.333904
0.333898
0.333907
0.333929
0.333967
0.334019
0.334086
0.334169
0.334268
0.334382
0.334512
0.334658
0.33482
0.334998
0.335191
0.335399
0.335623
0.335862
0.336115
0.336382
0.336664
0.336958
0.337266
0.337586
0.337918
0.338261
0.338615
0.33898
0.339354
0.339737
0.340129
0.340529
0.340936
0.34135
0.341771
0.342197
0.342628
0.343065
0.343505
0.34395
0.344398
0.344848
0.345302
0.345757
0.346214
0.346672
0.347131
0.34759
0.348049
0.348508
0.348967
0.349424
0.349879
0.350332
0.350783
0.351232
0.351677
0.352118
0.352556
0.352989
0.353417
0.353841
0.354259
0.354672
0.355079
0.35548
0.355875
0.356263
0.356645
0.357021
0.357389
0.35775
0.358105
0.358452
0.358791
0.359123
0.359448
0.359764
0.360073
0.360373
0.360666
0.360949
0.361224
0.361491
0.361748
0.361996
0.362235
0.362465
0.362685
0.362895
0.363095
0.363285
0.363465
0.363634
0.363793
0.363941
0.364078
0.364203
0.364318
0.36442
0.364512
0.364591
0.364658
0.364713
0.364756
0.364787
0.364805
0.36481
0.364802
0.364781
0.364748
0.364702
0.364642
0.364568
0.364482
0.364382
0.364268
0.364141
0.364
0.363846
0.363678
0.363496
0.363301
0.363093
0.362871
0.362636
0.362388
0.362127
0.361854
0.361567
0.361268
0.360956
0.360632
0.360295
0.359946
0.359584
0.35921
0.358822
0.358428
0.358008
0.357636
0.35713
0.340919
0.340844
0.340783
0.340723
0.340651
0.340566
0.34047
0.340363
0.340247
0.340122
0.33999
0.339851
0.339707
0.339558
0.339404
0.339247
0.339088
0.338927
0.338765
0.338602
0.33844
0.338279
0.33812
0.337963
0.33781
0.337661
0.337517
0.337379
0.337246
0.337121
0.337003
0.336894
0.336793
0.336702
0.336621
0.336552
0.336493
0.336447
0.336413
0.336393
0.336385
0.336392
0.336413
0.336449
0.336499
0.336565
0.336646
0.336742
0.336854
0.336982
0.337125
0.337284
0.337458
0.337648
0.337852
0.338072
0.338306
0.338554
0.338816
0.339091
0.33938
0.339681
0.339994
0.340318
0.340654
0.341
0.341356
0.341721
0.342096
0.342478
0.342869
0.343267
0.343671
0.344082
0.344499
0.34492
0.345347
0.345778
0.346213
0.346651
0.347093
0.347537
0.347984
0.348432
0.348882
0.349333
0.349785
0.350238
0.35069
0.351142
0.351593
0.352042
0.35249
0.352936
0.353379
0.35382
0.354257
0.35469
0.355119
0.355543
0.355963
0.356377
0.356786
0.35719
0.357587
0.357979
0.358364
0.358743
0.359115
0.359481
0.35984
0.360191
0.360535
0.360872
0.361201
0.361523
0.361837
0.362142
0.36244
0.362728
0.363009
0.36328
0.363543
0.363796
0.36404
0.364274
0.364499
0.364714
0.364919
0.365113
0.365297
0.365471
0.365633
0.365784
0.365924
0.366053
0.36617
0.366276
0.366369
0.366451
0.36652
0.366577
0.366621
0.366652
0.36667
0.366676
0.366668
0.366647
0.366613
0.366566
0.366504
0.36643
0.366341
0.366239
0.366123
0.365993
0.365849
0.365691
0.36552
0.365334
0.365135
0.364922
0.364696
0.364456
0.364203
0.363938
0.363659
0.363367
0.363063
0.362746
0.362416
0.362074
0.361718
0.361351
0.36097
0.360576
0.360174
0.359747
0.359365
0.358846
0.344302
0.344226
0.344161
0.344093
0.344013
0.34392
0.343815
0.343698
0.343572
0.343437
0.343294
0.343143
0.342987
0.342826
0.342661
0.342491
0.34232
0.342146
0.341971
0.341796
0.341621
0.341447
0.341275
0.341105
0.340939
0.340776
0.340618
0.340466
0.34032
0.34018
0.340048
0.339923
0.339808
0.339702
0.339605
0.33952
0.339445
0.339382
0.339331
0.339293
0.339268
0.339257
0.33926
0.339276
0.339308
0.339354
0.339415
0.339491
0.339583
0.33969
0.339812
0.33995
0.340103
0.340271
0.340454
0.340652
0.340864
0.34109
0.34133
0.341584
0.34185
0.342129
0.34242
0.342723
0.343038
0.343363
0.343698
0.344042
0.344396
0.344759
0.34513
0.345508
0.345894
0.346286
0.346685
0.347089
0.347499
0.347914
0.348333
0.348756
0.349183
0.349614
0.350047
0.350483
0.350922
0.351362
0.351804
0.352247
0.35269
0.353135
0.353579
0.354022
0.354465
0.354906
0.355345
0.355782
0.356216
0.356647
0.357075
0.357499
0.357918
0.358332
0.358742
0.359146
0.359545
0.359938
0.360325
0.360706
0.361081
0.361449
0.361811
0.362166
0.362514
0.362854
0.363187
0.363513
0.363831
0.36414
0.364442
0.364735
0.36502
0.365296
0.365562
0.36582
0.366069
0.366307
0.366536
0.366755
0.366964
0.367162
0.36735
0.367527
0.367692
0.367847
0.36799
0.368122
0.368241
0.368349
0.368444
0.368527
0.368598
0.368656
0.368701
0.368733
0.368752
0.368757
0.368749
0.368728
0.368692
0.368644
0.368581
0.368504
0.368413
0.368308
0.368189
0.368056
0.367909
0.367748
0.367572
0.367382
0.367179
0.366962
0.36673
0.366486
0.366228
0.365957
0.365672
0.365375
0.365065
0.364742
0.364406
0.364058
0.363697
0.363323
0.362936
0.362535
0.362126
0.361691
0.3613
0.360767
0.348173
0.348095
0.348024
0.347948
0.34786
0.347757
0.347641
0.347514
0.347376
0.347229
0.347074
0.346911
0.346742
0.346567
0.346388
0.346205
0.346019
0.345831
0.345642
0.345452
0.345262
0.345073
0.344886
0.344701
0.344519
0.344341
0.344168
0.344
0.343837
0.343681
0.343533
0.343392
0.343259
0.343136
0.343022
0.342918
0.342825
0.342744
0.342674
0.342617
0.342572
0.34254
0.342522
0.342518
0.342528
0.342553
0.342592
0.342646
0.342715
0.342799
0.342899
0.343013
0.343142
0.343286
0.343445
0.343618
0.343806
0.344007
0.344223
0.344452
0.344694
0.344948
0.345215
0.345493
0.345783
0.346084
0.346395
0.346716
0.347046
0.347386
0.347734
0.34809
0.348453
0.348824
0.349202
0.349585
0.349975
0.35037
0.35077
0.351175
0.351584
0.351998
0.352415
0.352836
0.353259
0.353685
0.354114
0.354545
0.354977
0.35541
0.355844
0.356279
0.356713
0.357147
0.357579
0.35801
0.358439
0.358865
0.359289
0.359709
0.360125
0.360537
0.360945
0.361348
0.361745
0.362138
0.362525
0.362906
0.363282
0.363651
0.364014
0.36437
0.36472
0.365062
0.365398
0.365726
0.366046
0.366359
0.366663
0.366959
0.367247
0.367526
0.367796
0.368057
0.368309
0.36855
0.368783
0.369005
0.369216
0.369418
0.369608
0.369788
0.369956
0.370113
0.370258
0.370392
0.370514
0.370623
0.37072
0.370804
0.370876
0.370934
0.37098
0.371012
0.37103
0.371035
0.371027
0.371004
0.370967
0.370917
0.370852
0.370773
0.370679
0.370572
0.37045
0.370313
0.370162
0.369997
0.369817
0.369623
0.369415
0.369192
0.368956
0.368706
0.368443
0.368166
0.367876
0.367573
0.367256
0.366928
0.366586
0.366231
0.365864
0.365484
0.365091
0.364683
0.364267
0.363824
0.363425
0.362879
0.352555
0.352475
0.352396
0.352311
0.352213
0.352099
0.351972
0.351833
0.351682
0.351522
0.351353
0.351175
0.350991
0.350801
0.350606
0.350407
0.350205
0.35
0.349794
0.349588
0.349381
0.349175
0.348971
0.348769
0.348569
0.348374
0.348183
0.347997
0.347816
0.347642
0.347475
0.347315
0.347163
0.347021
0.346887
0.346764
0.34665
0.346548
0.346458
0.346379
0.346312
0.346259
0.346218
0.346191
0.346178
0.346179
0.346194
0.346224
0.346268
0.346327
0.346401
0.346489
0.346592
0.34671
0.346842
0.346988
0.347149
0.347323
0.347511
0.347713
0.347927
0.348154
0.348393
0.348644
0.348906
0.34918
0.349464
0.349758
0.350061
0.350374
0.350696
0.351026
0.351364
0.35171
0.352063
0.352422
0.352788
0.35316
0.353537
0.35392
0.354308
0.354701
0.355098
0.355499
0.355904
0.356313
0.356725
0.357139
0.357556
0.357975
0.358396
0.358818
0.35924
0.359663
0.360086
0.360507
0.360927
0.361346
0.361762
0.362175
0.362585
0.362992
0.363395
0.363793
0.364187
0.364576
0.364961
0.36534
0.365713
0.366081
0.366442
0.366798
0.367147
0.367489
0.367825
0.368153
0.368474
0.368787
0.369093
0.36939
0.369679
0.369959
0.370231
0.370494
0.370747
0.370991
0.371224
0.371448
0.371662
0.371865
0.372057
0.372238
0.372408
0.372567
0.372713
0.372848
0.372971
0.373081
0.373178
0.373263
0.373335
0.373393
0.373438
0.37347
0.373488
0.373492
0.373482
0.373458
0.373419
0.373367
0.373299
0.373218
0.373121
0.37301
0.372885
0.372745
0.37259
0.37242
0.372236
0.372037
0.371824
0.371597
0.371355
0.3711
0.37083
0.370548
0.370252
0.369942
0.36962
0.369285
0.368937
0.368577
0.368203
0.367817
0.367417
0.367003
0.366581
0.366131
0.365723
0.365167
0.357474
0.35739
0.357304
0.357209
0.357098
0.356972
0.356832
0.356678
0.356513
0.356337
0.356151
0.355957
0.355756
0.355548
0.355335
0.355118
0.354897
0.354673
0.354448
0.354222
0.353996
0.353771
0.353547
0.353325
0.353106
0.352891
0.35268
0.352473
0.352272
0.352078
0.35189
0.351709
0.351537
0.351373
0.351218
0.351072
0.350937
0.350812
0.350698
0.350596
0.350506
0.350429
0.350364
0.350312
0.350273
0.350248
0.350237
0.35024
0.350258
0.350289
0.350335
0.350395
0.35047
0.350558
0.350661
0.350778
0.350909
0.351053
0.351211
0.351382
0.351566
0.351762
0.351971
0.352191
0.352422
0.352665
0.352919
0.353182
0.353455
0.353738
0.35403
0.354331
0.354639
0.354956
0.35528
0.355612
0.35595
0.356295
0.356645
0.357002
0.357365
0.357733
0.358106
0.358484
0.358866
0.359253
0.359644
0.360038
0.360436
0.360836
0.36124
0.361645
0.362051
0.362459
0.362867
0.363275
0.363683
0.36409
0.364495
0.364897
0.365298
0.365695
0.366089
0.36648
0.366867
0.367249
0.367627
0.368001
0.368369
0.368732
0.369089
0.369441
0.369787
0.370126
0.370459
0.370785
0.371104
0.371416
0.37172
0.372016
0.372304
0.372584
0.372855
0.373117
0.37337
0.373614
0.373847
0.374071
0.374285
0.374488
0.37468
0.374862
0.375032
0.37519
0.375337
0.375472
0.375594
0.375704
0.375801
0.375885
0.375956
0.376014
0.376058
0.376089
0.376105
0.376108
0.376096
0.376069
0.376029
0.375973
0.375903
0.375819
0.375719
0.375605
0.375475
0.375331
0.375172
0.374998
0.374809
0.374605
0.374387
0.374154
0.373908
0.373647
0.373372
0.373083
0.372781
0.372466
0.372137
0.371796
0.371442
0.371075
0.370696
0.370303
0.369898
0.369478
0.369049
0.368593
0.368178
0.367612
0.362959
0.36287
0.362775
0.362667
0.362543
0.362402
0.362246
0.362076
0.361893
0.361699
0.361494
0.36128
0.361058
0.360829
0.360595
0.360356
0.360113
0.359868
0.359621
0.359373
0.359124
0.358877
0.35863
0.358386
0.358145
0.357907
0.357674
0.357445
0.357222
0.357004
0.356794
0.35659
0.356394
0.356207
0.356028
0.355859
0.355699
0.35555
0.355412
0.355284
0.355169
0.355065
0.354973
0.354895
0.354829
0.354776
0.354737
0.354711
0.354699
0.354701
0.354716
0.354746
0.354789
0.354847
0.354918
0.355002
0.3551
0.355212
0.355337
0.355474
0.355624
0.355787
0.355961
0.356147
0.356345
0.356553
0.356772
0.357001
0.357241
0.35749
0.357748
0.358015
0.35829
0.358574
0.358865
0.359164
0.35947
0.359784
0.360104
0.36043
0.360763
0.361102
0.361446
0.361796
0.362152
0.362512
0.362877
0.363247
0.36362
0.363998
0.364379
0.364763
0.365149
0.365537
0.365926
0.366316
0.366707
0.367097
0.367486
0.367874
0.36826
0.368644
0.369026
0.369404
0.36978
0.370152
0.37052
0.370884
0.371243
0.371598
0.371948
0.372292
0.372631
0.372964
0.373291
0.373612
0.373926
0.374233
0.374533
0.374825
0.37511
0.375386
0.375654
0.375914
0.376164
0.376405
0.376637
0.376859
0.37707
0.377272
0.377462
0.377642
0.377811
0.377967
0.378113
0.378246
0.378367
0.378475
0.378571
0.378653
0.378722
0.378778
0.378821
0.378849
0.378863
0.378863
0.378849
0.37882
0.378776
0.378718
0.378644
0.378556
0.378453
0.378335
0.378201
0.378053
0.377889
0.37771
0.377517
0.377308
0.377085
0.376847
0.376594
0.376328
0.376047
0.375752
0.375444
0.375123
0.374789
0.374441
0.374081
0.373709
0.373323
0.372925
0.372514
0.372088
0.371654
0.371192
0.370771
0.370197
0.369042
0.368946
0.368839
0.368717
0.368577
0.368418
0.368243
0.368052
0.367848
0.367631
0.367403
0.367165
0.366919
0.366665
0.366406
0.366141
0.365873
0.365602
0.365329
0.365056
0.364782
0.364509
0.364237
0.363968
0.363701
0.363438
0.36318
0.362926
0.362678
0.362435
0.362199
0.361971
0.361749
0.361536
0.361332
0.361137
0.360951
0.360775
0.36061
0.360456
0.360312
0.360181
0.360061
0.359953
0.359858
0.359775
0.359705
0.359648
0.359605
0.359574
0.359557
0.359554
0.359563
0.359586
0.359623
0.359672
0.359735
0.359811
0.359899
0.36
0.360113
0.360238
0.360375
0.360523
0.360682
0.360853
0.361034
0.361225
0.361426
0.361637
0.361857
0.362086
0.362324
0.36257
0.362825
0.363087
0.363357
0.363634
0.363918
0.36421
0.364508
0.364812
0.365124
0.365441
0.365764
0.366093
0.366428
0.366767
0.367112
0.367462
0.367815
0.368173
0.368533
0.368896
0.369261
0.369629
0.369997
0.370366
0.370734
0.371102
0.371469
0.371835
0.372199
0.372561
0.372921
0.373278
0.373632
0.373982
0.374328
0.374671
0.375009
0.375342
0.375671
0.375994
0.376312
0.376623
0.376929
0.377228
0.37752
0.377806
0.378083
0.378354
0.378616
0.378869
0.379114
0.379351
0.379578
0.379795
0.380002
0.3802
0.380386
0.380562
0.380727
0.380881
0.381023
0.381153
0.381271
0.381376
0.381468
0.381548
0.381614
0.381667
0.381706
0.381731
0.381742
0.381739
0.381721
0.381689
0.381642
0.38158
0.381503
0.38141
0.381303
0.381181
0.381043
0.38089
0.380721
0.380538
0.380339
0.380126
0.379897
0.379654
0.379396
0.379123
0.378837
0.378537
0.378223
0.377896
0.377555
0.377202
0.376836
0.376458
0.376067
0.375663
0.375247
0.374816
0.374377
0.37391
0.373483
0.372904
0.375756
0.375652
0.375531
0.375391
0.375231
0.37505
0.374851
0.374635
0.374404
0.374159
0.373902
0.373635
0.373359
0.373075
0.372786
0.372491
0.372192
0.371891
0.371589
0.371285
0.370982
0.37068
0.370379
0.370082
0.369787
0.369496
0.369209
0.368928
0.368652
0.368382
0.368118
0.367862
0.367613
0.367373
0.36714
0.366917
0.366703
0.366499
0.366304
0.366121
0.365948
0.365786
0.365635
0.365496
0.365369
0.365254
0.365152
0.365061
0.364984
0.364919
0.364866
0.364827
0.3648
0.364786
0.364785
0.364796
0.36482
0.364856
0.364905
0.364965
0.365038
0.365122
0.365217
0.365324
0.365442
0.36557
0.365709
0.365857
0.366016
0.366185
0.366362
0.366549
0.366745
0.366949
0.367161
0.367382
0.367611
0.367847
0.368091
0.368342
0.368601
0.368866
0.369139
0.369418
0.369704
0.369997
0.370295
0.3706
0.37091
0.371226
0.371547
0.371872
0.372201
0.372534
0.372871
0.373209
0.373549
0.373891
0.374234
0.374577
0.37492
0.375262
0.375604
0.375945
0.376284
0.37662
0.376955
0.377287
0.377616
0.377942
0.378264
0.378582
0.378896
0.379205
0.379509
0.379808
0.380101
0.380389
0.38067
0.380944
0.381212
0.381473
0.381726
0.381971
0.382207
0.382436
0.382655
0.382865
0.383066
0.383256
0.383437
0.383607
0.383766
0.383914
0.384051
0.384176
0.384288
0.384389
0.384477
0.384551
0.384613
0.384662
0.384696
0.384717
0.384724
0.384717
0.384694
0.384658
0.384606
0.38454
0.384459
0.384362
0.38425
0.384123
0.38398
0.383822
0.383649
0.383461
0.383257
0.383038
0.382804
0.382556
0.382292
0.382015
0.381722
0.381417
0.381097
0.380764
0.380418
0.380059
0.379688
0.379304
0.378908
0.378499
0.378078
0.377643
0.377199
0.376729
0.376296
0.375714
0.383143
0.383027
0.382888
0.382726
0.38254
0.382331
0.382101
0.381852
0.381587
0.381306
0.381013
0.380709
0.380396
0.380076
0.379749
0.379418
0.379084
0.378747
0.37841
0.378072
0.377735
0.3774
0.377067
0.376736
0.37641
0.376088
0.37577
0.375458
0.375151
0.374851
0.374558
0.374272
0.373993
0.373722
0.37346
0.373206
0.372961
0.372726