/*--------------------------------*- C++ -*----------------------------------*\
| =========                 |                                                 |
| \\      /  F ield         | OpenFOAM: The Open Source CFD Toolbox           |
|  \\    /   O peration     | Version:  4.1                                   |
|   \\  /    A nd           | Web:      www.OpenFOAM.org                      |
|    \\/     M anipulation  |                                                 |
\*---------------------------------------------------------------------------*/
FoamFile
{
    version     2.0;
    format      ascii;
    class       volScalarField;
    location    "0.01";
    object      T;
}
// * * * * * * * * * * * * * * * * * * * * * * * * * * * * * * * * * * * * * //

dimensions      [0 0 0 1 0 0 0];

internalField   nonuniform List<scalar> 
12225
(
1.11552
1.23317
1.29917
1.34126
1.36974
1.38851
1.40119
1.41004
1.41642
1.42116
1.42479
1.42763
1.4299
1.43177
1.4333
1.43469
1.43581
1.43518
0.860947
0.707839
0.632408
0.594821
0.576427
0.569644
0.569414
0.572758
0.577971
0.584077
0.590513
0.596954
0.603214
0.609181
0.61481
0.619994
0.624958
0.628865
1.03458
1.08006
1.10414
1.11423
1.11556
1.11189
1.10559
1.09802
1.08996
1.08185
1.07398
1.06647
1.05942
1.05284
1.04677
1.04114
1.0362
1.0315
1.00165
0.998855
0.992981
0.988432
0.986044
0.98539
0.98593
0.9872
0.988859
0.990683
0.992533
0.994323
0.995998
0.997539
0.998939
1.00018
1.0013
1.00234
1.00023
1.00039
1.00026
1.00043
1.00067
1.0008
1.00084
1.0008
1.00072
1.00062
1.00051
1.00042
1.00033
1.00027
1.00023
1.00019
1.00021
1.00021
0.999584
0.999244
0.998899
0.998714
0.99862
0.998535
0.998453
0.99839
0.998342
0.998302
0.998271
0.998244
0.99822
0.998204
0.998189
0.998174
0.998175
0.998153
0.999929
1.00011
1.00016
1.00019
1.00023
1.00025
1.00026
1.00026
1.00026
1.00026
1.00026
1.00025
1.00024
1.00023
1.00022
1.00021
1.00021
1.00019
0.999971
1.00007
1.00006
1.00002
1.00001
1.00001
1.00001
1
1
1
1
1.00001
1.00002
1.00002
1.00002
1.00003
1.00003
1.00003
0.999979
1.00004
1.00003
1.00002
1.00002
1.00002
1.00002
1.00002
1.00002
1.00003
1.00003
1.00003
1.00003
1.00003
1.00003
1.00003
1.00003
1.00003
0.999978
1.00002
1.00001
0.999998
0.999998
1
0.999999
0.999997
0.999996
0.999997
0.999995
0.999996
1
0.999999
0.999995
1
0.999995
0.999997
0.999985
1.00001
1.00001
1
1
0.999997
0.999997
0.999997
1
1
1
0.999998
0.999997
1
1
1
0.999997
1
0.999988
1.00001
1.00001
0.999999
0.999997
0.999999
0.999998
0.999999
0.999998
0.999996
0.999996
0.999997
0.999999
0.999999
1
1
0.999996
1
0.999989
1.00001
1.00001
1
0.999999
0.999999
1
1
0.999999
0.999998
1
0.999998
0.999999
1
0.999999
1
0.999993
0.999997
0.999991
1
1.00001
1.00001
1
1
0.999997
0.999998
0.999999
0.999998
0.999996
0.999998
0.999997
0.999997
0.999997
0.999997
0.999994
1
0.999993
1
1.00001
1.00001
1
1
0.999998
0.999999
0.999999
0.999999
1
0.999999
0.999999
1
0.999995
0.999998
0.999992
0.999998
0.999994
1
1.00001
1
1
1
1
0.999999
0.999999
0.999997
0.999997
1
1
1
0.999999
0.999998
0.999993
0.999999
0.999993
1
1
1
1
1
1
1
0.999999
1
1
0.999999
0.999998
0.999999
1
1
0.999997
0.999999
0.999995
1
1
1.00001
1.00001
1.00001
1
1
1
1
1
1
1.00001
1.00001
1
1
0.999997
1
0.999995
1
1
1
1
1
1.00001
1
0.999999
1
1
1
0.999997
0.999995
0.999999
0.999997
0.999991
0.999995
0.999992
1
1
1
1
1
1.00001
1.00001
1.00001
1
1.00001
1.00001
1.00001
1.00001
1.00001
1.00001
1.00001
1.00002
0.999991
0.999999
1.00001
1
0.999996
0.999991
0.999991
0.999988
0.999986
0.999985
0.999981
0.999979
0.999975
0.999972
0.999972
0.999972
0.999964
0.999966
0.999988
1
1.00001
1.00001
1.00002
1.00002
1.00003
1.00004
1.00004
1.00005
1.00006
1.00006
1.00007
1.00007
1.00008
1.00008
1.00008
1.00009
0.999982
1
1
0.999974
0.999943
0.999921
0.9999
0.999878
0.99986
0.999842
0.999828
0.999815
0.999802
0.999795
0.999786
0.999779
0.99977
0.999767
0.999965
1.00007
1.00018
1.00024
1.0003
1.00037
1.00043
1.00049
1.00054
1.00058
1.00062
1.00065
1.00067
1.00069
1.00071
1.00072
1.00073
1.00074
0.999753
0.999568
0.999366
0.999131
0.998913
0.998704
0.998509
0.998342
0.998201
0.998088
0.998002
0.997936
0.997889
0.997856
0.997838
0.997829
0.997822
0.997814
0.999992
1.00043
1.00095
1.00167
1.00247
1.00316
1.00368
1.00405
1.00429
1.00442
1.00447
1.00446
1.0044
1.00432
1.00421
1.00409
1.00396
1.00386
0.999945
0.996247
0.990161
0.98452
0.980273
0.977358
0.975527
0.97452
0.974115
0.974128
0.974432
0.974931
0.975556
0.976259
0.977006
0.977763
0.978549
0.979195
1.0214
1.05634
1.0798
1.09471
1.10362
1.10848
1.11069
1.11118
1.11056
1.10922
1.10743
1.10537
1.10317
1.1009
1.09862
1.09638
1.09417
1.09224
0.922802
0.82784
0.774466
0.743959
0.725618
0.714657
0.708441
0.705217
0.70388
0.70374
0.704359
0.705454
0.70684
0.708395
0.710039
0.711701
0.713398
0.714943
1.06291
1.12901
1.16726
1.19166
1.20826
1.21975
1.22781
1.23361
1.2379
1.24113
1.24365
1.24564
1.24725
1.24858
1.24971
1.25063
1.25155
1.25214
-1.69966e-36
-2.56729e-37
-2.37536e-38
-7.36392e-38
-2.31736e-41
6.29139e-39
1.22185e-38
1.61047e-38
1.6069e-38
1.3077e-38
9.26934e-39
6.68054e-39
6.06081e-39
6.2295e-39
6.01073e-39
5.18621e-39
4.04388e-39
2.90684e-39
1.95968e-39
1.25514e-39
7.71064e-40
4.57419e-40
2.63199e-40
1.47243e-40
7.99978e-41
4.15179e-41
1.89279e-41
4.60818e-42
-4.93946e-42
-1.06096e-41
-1.27286e-41
-1.2195e-41
-1.02171e-41
-7.80647e-42
-5.57343e-42
-3.77623e-42
-2.4531e-42
-1.53843e-42
-9.35631e-43
-5.53386e-43
-3.18791e-43
-1.78957e-43
-9.78764e-44
-5.21539e-44
-2.71546e-44
-1.39936e-44
-7.38414e-45
-4.2151e-45
-2.70189e-45
-1.89681e-45
-1.36798e-45
-9.61834e-46
-6.41969e-46
-4.0264e-46
-2.36471e-46
-1.2944e-46
-6.4913e-47
-2.8012e-47
-7.83073e-48
2.42141e-48
6.57651e-48
7.00198e-48
5.53601e-48
3.59596e-48
1.98739e-48
9.46614e-49
3.85965e-49
1.27231e-49
2.31582e-50
-1.45043e-50
-3.0236e-50
-5.58969e-50
-1.73018e-49
-6.40221e-49
-1.7498e-48
1.23811e-49
4.1574e-47
3.40739e-46
1.86485e-45
7.71285e-45
2.22895e-44
1.67626e-44
-3.23389e-43
-2.87573e-42
-1.60603e-41
-6.88989e-41
-2.2643e-40
-4.55781e-40
6.26423e-40
1.26313e-38
8.24263e-38
3.90946e-37
1.48129e-36
4.36442e-36
7.8015e-36
-1.19844e-35
-2.00148e-34
-1.20093e-33
-5.29572e-33
-1.87237e-32
-5.14538e-32
-8.5042e-32
1.19584e-31
1.19532e-30
4.26815e-30
1.0758e-29
2.18502e-29
3.78074e-29
5.74407e-29
7.80344e-29
9.58386e-29
1.06999e-28
1.08603e-28
9.94903e-29
8.05494e-29
5.44624e-29
2.50105e-29
-3.80307e-30
-2.85632e-29
-4.70169e-29
-5.8246e-29
-6.25516e-29
-6.11142e-29
-5.55738e-29
-4.7639e-29
-3.88047e-29
-3.01993e-29
-2.25487e-29
-1.62061e-29
-1.12295e-29
-7.51694e-30
-4.8686e-30
-3.05523e-30
-1.85977e-30
-1.09918e-30
-6.318e-31
-3.53308e-31
-1.92418e-31
-1.02176e-31
-5.29688e-32
-2.6829e-32
-1.32863e-32
-6.44471e-33
-3.06618e-33
-1.43251e-33
-6.60841e-34
-3.00708e-34
-1.35234e-34
-6.02132e-35
-2.65362e-35
-1.15977e-35
-5.03236e-36
-2.16356e-36
-9.21516e-37
-3.88479e-37
-1.62733e-37
-6.73984e-38
-2.75251e-38
-1.10567e-38
-4.37683e-39
-1.71265e-39
-6.58865e-40
-2.49045e-40
-9.2719e-41
-3.34983e-41
-1.17606e-41
-4.0636e-42
-1.38489e-42
-4.65408e-43
-1.5416e-43
-5.02905e-44
-1.61329e-44
-5.07474e-45
-1.55668e-45
-4.61259e-46
-1.29394e-46
-3.32638e-47
-7.11377e-48
-1.06134e-48
1.24361e-51
1.6397e-35
-3.2337e-35
1.98925e-36
-5.59283e-37
-3.21468e-36
-6.845e-36
-9.51515e-36
-1.01048e-35
-8.84836e-36
-6.63723e-36
-4.44702e-36
-3.04145e-36
-2.59437e-36
-2.54049e-36
-2.38438e-36
-2.02908e-36
-1.57392e-36
-1.13204e-36
-7.66909e-37
-4.95243e-37
-3.07594e-37
-1.84917e-37
-1.08053e-37
-6.15142e-38
-3.41113e-38
-1.82104e-38
-8.78675e-39
-2.74637e-39
1.42087e-39
4.09732e-39
5.32214e-39
5.36126e-39
4.67322e-39
3.6946e-39
2.72005e-39
1.89606e-39
1.26516e-39
8.14064e-40
5.07597e-40
3.07677e-40
1.81622e-40
1.04484e-40
5.85741e-41
3.19857e-41
1.70301e-41
8.90496e-42
4.68148e-42
2.593e-42
1.59024e-42
1.08345e-42
7.79235e-43
5.57915e-43
3.83456e-43
2.48954e-43
1.51785e-43
8.65715e-44
4.56747e-44
2.13832e-44
7.50949e-45
-4.63834e-47
-3.61735e-45
-4.56666e-45
-3.97078e-45
-2.77945e-45
-1.64181e-45
-8.32933e-46
-3.61916e-46
-1.28979e-46
-2.97278e-47
7.01185e-48
1.93255e-47
2.24052e-47
1.72395e-47
2.70266e-48
3.98053e-47
6.2859e-46
4.35293e-45
2.0469e-44
6.48028e-44
6.15014e-44
-9.00892e-43
-8.1508e-42
-4.30991e-41
-1.57899e-40
-3.10358e-40
8.60266e-40
1.26732e-38
7.78185e-38
3.32445e-37
9.6431e-37
7.57002e-37
-1.29522e-35
-1.11843e-34
-5.95386e-34
-2.37959e-33
-6.85313e-33
-7.94397e-33
6.38499e-32
6.16263e-31
3.45715e-30
1.49301e-29
5.10595e-29
1.361e-28
2.94456e-28
5.31277e-28
8.12247e-28
1.05503e-27
1.14156e-27
9.50495e-28
3.98738e-28
-5.2406e-28
-1.74183e-27
-3.10463e-27
-4.4229e-27
-5.51155e-27
-6.23017e-27
-6.50871e-27
-6.35372e-27
-5.83542e-27
-5.06243e-27
-4.15847e-27
-3.23695e-27
-2.38548e-27
-1.65929e-27
-1.08242e-27
-6.53977e-28
-3.56591e-28
-1.64807e-28
-5.15988e-29
7.81157e-30
3.32738e-29
3.93556e-29
3.58271e-29
2.86444e-29
2.10602e-29
1.45857e-29
9.59891e-30
6.05006e-30
3.67038e-30
2.15081e-30
1.22097e-30
6.72904e-31
3.60426e-31
1.87876e-31
9.54192e-32
4.72946e-32
2.28674e-32
1.07911e-32
4.97205e-33
2.2461e-33
9.91527e-34
4.28144e-34
1.80912e-34
7.47388e-35
3.01894e-35
1.19703e-35
4.64051e-36
1.76241e-36
6.55394e-37
2.38315e-37
8.4868e-38
2.94522e-38
1.00091e-38
3.33098e-39
1.07605e-39
3.3607e-40
1.02029e-40
3.0083e-41
8.57332e-42
2.34149e-42
6.03448e-43
1.42258e-43
2.84031e-44
3.52817e-45
-5.9351e-46
-6.82555e-46
-3.36479e-46
-1.21757e-46
-3.22708e-47
-3.32234e-48
1.39996e-33
2.61989e-35
4.44657e-35
7.04839e-34
1.85762e-33
2.83118e-33
3.20771e-33
2.98064e-33
2.38736e-33
1.68601e-33
1.08077e-33
7.03994e-34
5.64726e-34
5.28473e-34
4.85002e-34
4.09181e-34
3.17092e-34
2.28953e-34
1.5624e-34
1.01902e-34
6.40634e-35
3.90579e-35
2.3187e-35
1.34351e-35
7.60224e-36
4.17016e-36
2.12047e-36
7.99165e-37
-1.38022e-37
-7.84504e-37
-1.13087e-36
-1.20787e-36
-1.10009e-36
-9.02204e-37
-6.86041e-37
-4.92486e-37
-3.37732e-37
-2.2302e-37
-1.42569e-37
-8.85403e-38
-5.35303e-38
-3.15377e-38
-1.81081e-38
-1.01277e-38
-5.51625e-39
-2.93556e-39
-1.5486e-39
-8.39191e-40
-4.9198e-40
-3.21177e-40
-2.27083e-40
-1.64086e-40
-1.15685e-40
-7.767e-41
-4.91662e-41
-2.92126e-41
-1.61712e-41
-8.11906e-42
-3.33137e-42
-5.66678e-43
9.01637e-43
1.46659e-42
1.42648e-42
1.08381e-42
6.87216e-43
3.72589e-43
1.73034e-43
6.65835e-44
1.80368e-44
-7.8289e-46
-7.10469e-45
-9.43962e-45
-1.03647e-44
-8.76092e-45
1.66941e-45
4.88294e-44
2.2162e-43
5.51862e-43
-8.64838e-43
-2.01532e-41
-1.42671e-40
-6.84585e-40
-2.2677e-39
-3.00879e-39
2.44605e-38
2.50656e-37
1.42334e-36
5.85501e-36
1.66399e-35
1.40497e-35
-2.01502e-34
-1.729e-33
-9.03697e-33
-3.55045e-32
-1.02117e-31
-1.39272e-31
6.77933e-31
7.01571e-30
3.84892e-29
1.59166e-28
5.12367e-28
1.11641e-27
1.49273e-27
3.59849e-28
-4.34402e-27
-1.49001e-26
-3.28561e-26
-5.80788e-26
-8.82627e-26
-1.19169e-25
-1.45562e-25
-1.6252e-25
-1.66691e-25
-1.57079e-25
-1.35171e-25
-1.04435e-25
-6.94133e-26
-3.47214e-26
-4.19988e-27
1.96705e-26
3.58515e-26
4.45903e-26
4.7044e-26
4.48428e-26
3.96977e-26
3.31215e-26
2.62783e-26
1.99489e-26
1.45586e-26
1.02377e-26
6.95469e-27
4.57311e-27
2.9156e-27
1.80472e-27
1.08574e-27
6.3629e-28
3.63288e-28
2.02302e-28
1.09994e-28
5.84612e-29
3.03975e-29
1.54721e-29
7.71894e-30
3.7782e-30
1.81533e-30
8.59492e-31
4.00536e-31
1.83866e-31
8.32047e-32
3.71661e-32
1.63815e-32
7.13059e-33
3.06107e-33
1.29629e-33
5.40957e-34
2.23517e-34
9.10693e-35
3.65393e-35
1.4423e-35
5.60022e-36
2.14661e-36
8.09056e-37
2.99705e-37
1.09277e-37
3.91336e-38
1.37529e-38
4.755e-39
1.61921e-39
5.43261e-40
1.79568e-40
5.84429e-41
1.87058e-41
5.87376e-42
1.80141e-42
5.35417e-43
1.52024e-43
4.02497e-44
9.43602e-45
1.79191e-45
1.77113e-46
-7.09642e-34
2.97609e-32
-2.52987e-32
-2.60337e-31
-5.12851e-31
-6.44946e-31
-6.39816e-31
-5.41481e-31
-4.06249e-31
-2.74324e-31
-1.70065e-31
-1.06233e-31
-8.0352e-32
-7.19341e-32
-6.47035e-32
-5.42807e-32
-4.21418e-32
-3.06158e-32
-2.10821e-32
-1.3905e-32
-8.85584e-33
-5.47835e-33
-3.30491e-33
-1.94892e-33
-1.12471e-33
-6.32669e-34
-3.36627e-34
-1.45533e-34
-7.31404e-36
9.4148e-35
1.55779e-34
1.77961e-34
1.70018e-34
1.44962e-34
1.14008e-34
8.43594e-35
5.94897e-35
4.03285e-35
2.64349e-35
1.682e-35
1.04138e-35
6.28167e-36
3.69293e-36
2.11505e-36
1.17922e-36
6.40476e-37
3.41494e-37
1.83093e-37
1.03262e-37
6.40556e-38
4.37784e-38
3.14897e-38
2.26062e-38
1.56498e-38
1.02777e-38
6.35899e-39
3.68559e-39
1.96723e-39
9.05406e-40
2.60997e-40
-1.14269e-40
-2.94348e-40
-3.28086e-40
-2.72855e-40
-1.8653e-40
-1.08397e-40
-5.39364e-41
-2.24137e-41
-6.89175e-42
-4.70651e-43
1.69134e-42
2.39446e-42
2.77216e-42
2.86643e-42
2.57892e-42
2.89556e-42
6.51439e-42
1.04178e-41
-6.07112e-41
-7.02277e-40
-3.98554e-39
-1.47528e-38
-2.58249e-38
1.10008e-37
1.28591e-36
6.88625e-36
2.33985e-35
3.26786e-35
-2.03555e-34
-1.93951e-33
-9.19726e-33
-2.60503e-32
-6.70664e-33
4.31827e-31
3.05597e-30
1.29603e-29
3.29392e-29
-1.16605e-29
-7.03611e-28
-4.85245e-27
-2.21213e-26
-7.32214e-26
-1.86827e-25
-3.86648e-25
-6.73122e-25
-1.00953e-24
-1.32141e-24
-1.51234e-24
-1.49119e-24
-1.20105e-24
-6.3908e-25
1.3935e-25
1.03308e-24
1.91914e-24
2.68025e-24
3.22805e-24
3.51669e-24
3.54541e-24
3.35071e-24
2.99114e-24
2.53508e-24
2.0467e-24
1.57732e-24
1.16154e-24
8.17303e-25
5.48844e-25
3.50736e-25
2.12201e-25
1.20565e-25
6.31902e-26
2.94638e-26
1.10784e-26
2.02067e-27
-1.76401e-27
-2.83297e-27
-2.6984e-27
-2.12991e-27
-1.51399e-27
-1.0015e-27
-6.26649e-28
-3.74747e-28
-2.15612e-28
-1.19717e-28
-6.43404e-29
-3.35495e-29
-1.70004e-29
-8.37854e-30
-4.01925e-30
-1.87696e-30
-8.58049e-31
-3.82561e-31
-1.66401e-31
-7.06967e-32
-2.93152e-32
-1.18528e-32
-4.68876e-33
-1.80791e-33
-6.80671e-34
-2.50289e-34
-8.95864e-35
-3.11779e-35
-1.05274e-35
-3.43859e-36
-1.08343e-36
-3.26709e-37
-9.31712e-38
-2.46739e-38
-5.81957e-39
-1.08017e-39
-6.55519e-41
7.52611e-41
5.59103e-41
2.80007e-41
1.20122e-41
4.69567e-42
1.70575e-42
5.76036e-43
1.77356e-43
4.80053e-44
9.72147e-45
-1.17409e-30
-1.39172e-29
5.11562e-30
5.17314e-29
8.65921e-29
9.6346e-29
8.72931e-29
6.91243e-29
4.94613e-29
3.2345e-29
1.95852e-29
1.1829e-29
8.47071e-30
7.2522e-30
6.39409e-30
5.34018e-30
4.15978e-30
3.04477e-30
2.11784e-30
1.41354e-30
9.12353e-31
5.72724e-31
3.51051e-31
2.10615e-31
1.23863e-31
7.12952e-32
3.94183e-32
1.88859e-32
3.87932e-33
-7.72841e-33
-1.55492e-32
-1.92076e-32
-1.93311e-32
-1.7174e-32
-1.39881e-32
-1.06776e-32
-7.74702e-33
-5.39302e-33
-3.62524e-33
-2.36329e-33
-1.49822e-33
-9.25106e-34
-5.5671e-34
-3.26441e-34
-1.86356e-34
-1.03502e-34
-5.60956e-35
-3.00877e-35
-1.65136e-35
-9.72573e-36
-6.32293e-36
-4.44397e-36
-3.20879e-36
-2.27706e-36
-1.54823e-36
-9.96872e-37
-6.04078e-37
-3.40748e-37
-1.71671e-37
-6.45314e-38
2.71194e-39
4.04783e-38
5.37802e-38
4.94932e-38
3.66595e-38
2.29001e-38
1.22338e-38
5.49527e-39
1.88949e-39
2.71756e-40
-2.98011e-40
-4.58565e-40
-5.41067e-40
-6.03533e-40
-5.54943e-40
-3.48993e-40
-1.13937e-40
-4.02885e-40
-3.89425e-39
-1.95358e-38
-4.93028e-38
1.16235e-37
2.13681e-36
1.36735e-35
5.40673e-35
9.47222e-35
-5.04735e-34
-5.85867e-33
-3.26817e-32
-1.18363e-31
-1.99223e-31
9.1067e-31
1.0456e-29
5.7706e-29
2.16856e-28
4.84363e-28
-4.73152e-28
-1.1906e-26
-7.54135e-26
-3.23634e-25
-9.8042e-25
-2.1023e-24
-3.3622e-24
-3.90117e-24
-2.4597e-24
2.2277e-24
1.09239e-23
2.34817e-23
3.87116e-23
5.45858e-23
6.87054e-23
7.88724e-23
8.35866e-23
8.23292e-23
7.55852e-23
6.4633e-23
5.11951e-23
3.7067e-23
2.38145e-23
1.25204e-23
3.76871e-24
-2.3282e-24
-6.01313e-24
-7.74186e-24
-8.04936e-24
-7.44801e-24
-6.36526e-24
-5.11937e-24
-3.91886e-24
-2.87216e-24
-2.02512e-24
-1.37845e-24
-9.08169e-25
-5.80279e-25
-3.60064e-25
-2.17682e-25
-1.28204e-25
-7.3643e-26
-4.13021e-26
-2.2639e-26
-1.21378e-26
-6.36955e-27
-3.27418e-27
-1.64976e-27
-8.14971e-28
-3.95712e-28
-1.88692e-28
-8.83867e-29
-4.06723e-29
-1.84361e-29
-8.21892e-30
-3.605e-30
-1.55475e-30
-6.59556e-31
-2.74868e-31
-1.13052e-31
-4.57382e-32
-1.81962e-32
-7.11851e-33
-2.73763e-33
-1.03494e-33
-3.84538e-34
-1.40407e-34
-5.04006e-35
-1.77783e-35
-6.16117e-36
-2.09939e-36
-7.03778e-37
-2.32177e-37
-7.53725e-38
-2.40644e-38
-7.54675e-39
-2.31929e-39
-6.95603e-40
-2.02186e-40
-5.62732e-41
-1.47048e-41
-3.47904e-42
-7.02485e-43
-9.59677e-44
4.04743e-28
2.99933e-27
-5.11557e-28
-6.61271e-27
-1.00694e-26
-1.03513e-26
-8.8189e-27
-6.66736e-27
-4.61568e-27
-2.95424e-27
-1.76261e-27
-1.03837e-27
-7.0791e-28
-5.79221e-28
-4.99831e-28
-4.15507e-28
-3.24921e-28
-2.39783e-28
-1.68572e-28
-1.13903e-28
-7.45173e-29
-4.74658e-29
-2.95541e-29
-1.80318e-29
-1.07989e-29
-6.34821e-30
-3.62516e-30
-1.87841e-30
-6.00218e-31
4.31112e-31
1.19005e-30
1.61382e-30
1.71994e-30
1.59624e-30
1.3485e-30
1.06293e-30
7.93963e-31
5.67815e-31
3.91528e-31
2.61536e-31
1.69776e-31
1.07303e-31
6.60895e-32
3.96705e-32
2.31904e-32
1.31856e-32
7.29335e-33
3.95035e-33
2.13958e-33
1.20577e-33
7.38102e-34
4.95966e-34
3.53505e-34
2.54444e-34
1.78335e-34
1.19354e-34
7.55634e-35
4.48818e-35
2.43788e-35
1.08656e-35
1.8382e-36
-3.90172e-36
-6.64976e-36
-6.8741e-36
-5.54996e-36
-3.73833e-36
-2.14817e-36
-1.04398e-36
-3.98754e-37
-8.13267e-38
4.01941e-38
7.18864e-38
8.28169e-38
9.74362e-38
1.02792e-37
8.05509e-38
3.80387e-38
-2.01809e-38
-1.68062e-37
-6.52131e-37
-1.25304e-36
5.54185e-36
6.91382e-35
3.76568e-34
1.18958e-33
4.59075e-34
-2.10251e-32
-1.5267e-31
-6.26453e-31
-1.33664e-30
2.43647e-30
3.85509e-29
2.01983e-28
6.28488e-28
6.6864e-28
-5.51227e-27
-4.18991e-26
-1.58517e-25
-2.74245e-25
8.97145e-25
9.83345e-24
3.88066e-23
1.02312e-22
2.10136e-22
3.60291e-22
5.35506e-22
7.05262e-22
8.32972e-22
8.85761e-22
8.43452e-22
7.03885e-22
4.83242e-22
2.11729e-22
-7.36658e-23
-3.37059e-22
-5.50147e-22
-6.96025e-22
-7.70111e-22
-7.78441e-22
-7.33875e-22
-6.53004e-22
-5.52525e-22
-4.46781e-22
-3.46468e-22
-2.58305e-22
-1.85463e-22
-1.2838e-22
-8.57344e-23
-5.53138e-23
-3.44448e-23
-2.06925e-23
-1.19787e-23
-6.66952e-24
-3.56126e-24
-1.81518e-24
-8.7481e-25
-3.9339e-25
-1.60494e-25
-5.55501e-26
-1.27908e-26
2.02678e-27
5.46733e-27
4.90889e-27
3.44219e-27
2.13623e-27
1.21828e-27
6.53741e-28
3.3353e-28
1.62462e-28
7.65688e-29
3.47418e-29
1.5163e-29
6.39643e-30
2.59961e-30
1.01455e-30
3.78621e-31
1.34176e-31
4.45638e-32
1.35281e-32
3.53683e-33
6.49354e-34
-3.46418e-35
-1.20597e-34
-8.4537e-35
-4.52781e-35
-2.13868e-35
-9.34822e-36
-3.86748e-36
-1.53361e-36
-5.87453e-37
-2.18463e-37
-7.91218e-38
-2.79526e-38
-9.63264e-39
-3.23164e-39
-1.05053e-39
-3.28216e-40
-9.7134e-41
-2.67529e-41
-6.37669e-42
-7.28537e-26
-3.96137e-25
2.19472e-26
5.99396e-25
8.66068e-25
8.4698e-25
6.9307e-25
5.08158e-25
3.44338e-25
2.1764e-25
1.28954e-25
7.47561e-26
4.88684e-26
3.82116e-26
3.21943e-26
2.66043e-26
2.088e-26
1.55389e-26
1.10444e-26
7.55636e-27
5.01106e-27
3.23851e-27
2.04773e-27
1.27001e-27
7.74014e-28
4.63989e-28
2.72312e-28
1.49894e-28
6.09726e-29
-1.30756e-29
-7.18993e-29
-1.09471e-28
-1.24363e-28
-1.20941e-28
-1.0616e-28
-8.65077e-29
-6.6577e-29
-4.8942e-29
-3.46302e-29
-2.37095e-29
-1.57622e-29
-1.01976e-29
-6.42814e-30
-3.94946e-30
-2.36412e-30
-1.37687e-30
-7.79227e-31
-4.2923e-31
-2.32523e-31
-1.27213e-31
-7.33308e-32
-4.61634e-32
-3.16434e-32
-2.2684e-32
-1.62466e-32
-1.12716e-32
-7.45317e-33
-4.65423e-33
-2.70096e-33
-1.36292e-33
-4.1965e-34
2.46712e-34
6.39328e-34
7.58529e-34
6.72567e-34
4.90231e-34
3.03537e-34
1.59691e-34
6.751e-35
1.74539e-35
-3.92317e-36
-9.75642e-36
-1.06953e-35
-1.25027e-35
-1.47124e-35
-1.33757e-35
-8.09825e-36
-1.91323e-36
1.8934e-36
2.02223e-36
2.28615e-35
2.26666e-34
1.07339e-33
1.66444e-33
-1.5675e-32
-1.49943e-31
-6.4898e-31
-8.35231e-31
9.80414e-30
8.78712e-29
3.84124e-28
6.79282e-28
-3.79737e-27
-4.10955e-26
-2.04441e-25
-5.62853e-25
2.65613e-25
1.30936e-23
8.55075e-23
3.39626e-22
8.85712e-22
1.74106e-21
2.7484e-21
3.57082e-21
3.7721e-21
2.95384e-21
8.94204e-22
-2.36241e-21
-6.49505e-21
-1.0975e-20
-1.51877e-20
-1.85677e-20
-2.07104e-20
-2.14335e-20
-2.07832e-20
-1.89917e-20
-1.64052e-20
-1.34077e-20
-1.03615e-20
-7.53906e-21
-5.12136e-21
-3.1933e-21
-1.7603e-21
-7.72476e-22
-1.49519e-22
1.98284e-22
3.55235e-22
3.91913e-22
3.61862e-22
3.01563e-22
2.34083e-22
1.71996e-22
1.20763e-22
8.15098e-23
5.3067e-23
3.3528e-23
2.05618e-23
1.22636e-23
7.12421e-24
4.03552e-24
2.23169e-24
1.20622e-24
6.37535e-25
3.29732e-25
1.66907e-25
8.2823e-26
4.02791e-26
1.92011e-26
8.96755e-27
4.11882e-27
1.85647e-27
8.21089e-28
3.56377e-28
1.51827e-28
6.34834e-29
2.60511e-29
1.04922e-29
4.14689e-30
1.60836e-30
6.12052e-31
2.2851e-31
8.3693e-32
3.00667e-32
1.0595e-32
3.66127e-33
1.24042e-33
4.11995e-34
1.34132e-34
4.27851e-35
1.33581e-35
4.07492e-36
1.21088e-36
3.48736e-37
9.65105e-38
2.52796e-38
6.08852e-39
1.26461e-39
1.84168e-40
-5.75347e-42
-1.82921e-41
8.5729e-24
3.64966e-23
8.78523e-25
-4.09704e-23
-5.77996e-23
-5.48962e-23
-4.38348e-23
-3.15544e-23
-2.11297e-23
-1.32878e-23
-7.87235e-24
-4.52898e-24
-2.86288e-24
-2.14214e-24
-1.75709e-24
-1.44013e-24
-1.13324e-24
-8.50204e-25
-6.10919e-25
-4.23238e-25
-2.84491e-25
-1.86507e-25
-1.19721e-25
-7.54439e-26
-4.67629e-26
-2.85508e-26
-1.71541e-26
-9.89668e-27
-4.70188e-27
-2.87892e-28
3.46094e-27
6.13421e-27
7.49213e-27
7.66275e-27
7.00341e-27
5.90781e-27
4.68906e-27
3.54566e-27
2.57581e-27
1.80821e-27
1.23143e-27
8.15664e-28
5.26263e-28
3.30958e-28
2.02851e-28
1.21039e-28
7.01858e-29
3.95055e-29
2.16435e-29
1.16933e-29
6.42123e-30
3.74458e-30
2.39252e-30
1.65743e-30
1.19207e-30
8.51906e-31
5.88065e-31
3.86308e-31
2.38539e-31
1.32971e-31
5.47604e-32
-6.06969e-33
-4.84335e-32
-6.81199e-32
-6.69599e-32
-5.30343e-32
-3.54462e-32
-2.01912e-32
-9.42018e-33
-2.94051e-33
1.86432e-34
1.16786e-33
1.24353e-33
1.34354e-33
1.70589e-33
1.79607e-33
1.31414e-33
4.97104e-34
-3.48474e-34
-7.88619e-34
5.75935e-34
7.46719e-33
2.07709e-32
-5.99085e-32
-9.73566e-31
-5.38352e-30
-1.38706e-29
3.17535e-29
5.36513e-28
2.92333e-27
7.97713e-27
-8.43246e-27
-2.18264e-25
-1.26077e-24
-3.98731e-24
-2.05988e-24
6.02977e-23
4.25605e-22
1.65484e-21
3.05444e-21
1.72426e-21
-6.5883e-21
-2.6021e-20
-5.86933e-20
-1.03349e-19
-1.5512e-19
-2.06449e-19
-2.48874e-19
-2.75049e-19
-2.80406e-19
-2.64005e-19
-2.28481e-19
-1.79209e-19
-1.22994e-19
-6.66996e-20
-1.60974e-20
2.48426e-20
5.41987e-20
7.18974e-20
7.92671e-20
7.84975e-20
7.20851e-20
6.24004e-20
5.14151e-20
4.05765e-20
3.0804e-20
2.25624e-20
1.598e-20
1.09773e-20
7.31808e-21
4.74058e-21
2.98718e-21
1.83268e-21
1.0956e-21
6.38423e-22
3.63322e-22
2.0194e-22
1.09709e-22
5.83076e-23
3.03529e-23
1.54856e-23
7.74503e-24
3.80463e-24
1.83823e-24
8.73839e-25
4.10766e-25
1.90879e-25
8.78022e-26
4.00342e-26
1.81149e-26
8.14055e-27
3.634e-27
1.61115e-27
7.08991e-28
3.09351e-28
1.33671e-28
5.71249e-29
2.41122e-29
1.00403e-29
4.11984e-30
1.66442e-30
6.61604e-31
2.58628e-31
9.94009e-32
3.75557e-32
1.3949e-32
5.09444e-33
1.83018e-33
6.46994e-34
2.25137e-34
7.7125e-35
2.60063e-35
8.62611e-36
2.8106e-36
8.97305e-37
2.79532e-37
8.4449e-38
2.45111e-38
6.76714e-39
1.70022e-39
-7.35711e-22
-2.52823e-21
-2.12929e-22
2.20169e-21
3.09656e-21
2.89976e-21
2.28699e-21
1.63219e-21
1.08858e-21
6.85458e-22
4.08451e-22
2.35018e-22
1.4499e-22
1.04145e-22
8.29489e-23
6.72258e-23
5.29421e-23
4.00063e-23
2.905e-23
2.03736e-23
1.38778e-23
9.22625e-24
6.00996e-24
3.84603e-24
2.42298e-24
1.50519e-24
9.23086e-25
5.52468e-25
2.92419e-25
6.96922e-26
-1.30767e-25
-2.8797e-25
-3.82522e-25
-4.13306e-25
-3.94265e-25
-3.4484e-25
-2.82592e-25
-2.19988e-25
-1.64191e-25
-1.18244e-25
-8.25247e-26
-5.59809e-26
-3.69768e-26
-2.38049e-26
-1.49402e-26
-9.13393e-27
-5.4303e-27
-3.13224e-27
-1.74942e-27
-9.48292e-28
-5.05856e-28
-2.74446e-28
-1.58912e-28
-1.01603e-28
-7.08341e-29
-5.13356e-29
-3.69191e-29
-2.56004e-29
-1.68481e-29
-1.02621e-29
-5.11769e-30
-7.03497e-31
2.88631e-30
5.06253e-30
5.58144e-30
4.82686e-30
3.4893e-30
2.15187e-30
1.1047e-30
4.0504e-31
2.19211e-32
-1.21882e-31
-1.35473e-31
-1.28402e-31
-1.6473e-31
-1.98164e-31
-1.71681e-31
-9.38367e-32
7.77676e-33
1.0754e-31
1.33951e-31
1.62759e-31
1.33524e-31
-1.633e-30
-1.22703e-29
-3.28266e-29
1.0607e-28
1.40067e-27
5.34275e-27
-4.25798e-27
-1.56979e-25
-7.97278e-25
-7.00313e-25
1.61654e-23
1.18164e-22
3.41937e-22
-7.2684e-22
-1.3182e-20
-7.1197e-20
-2.15956e-19
-4.72281e-19
-8.28741e-19
-1.23078e-18
-1.59055e-18
-1.80995e-18
-1.80821e-18
-1.54385e-18
-1.02569e-18
-3.1044e-19
5.11002e-19
1.33373e-18
2.05966e-18
2.61413e-18
2.95533e-18
3.07579e-18
2.99741e-18
2.76215e-18
2.4214e-18
2.02882e-18
1.62835e-18
1.25382e-18
9.26764e-19
6.57378e-19
4.4686e-19
2.90273e-19
1.79281e-19
1.04341e-19
5.62695e-20
2.72208e-20
1.08002e-20
2.32188e-21
-1.47798e-21
-2.7344e-21
-2.7545e-21
-2.27605e-21
-1.69891e-21
-1.18007e-21
-7.76267e-22
-4.88462e-22
-2.95689e-22
-1.73041e-22
-9.82896e-23
-5.42548e-23
-2.91517e-23
-1.52639e-23
-7.79568e-24
-3.88708e-24
-1.89341e-24
-9.01311e-25
-4.19426e-25
-1.90872e-25
-8.49531e-26
-3.69814e-26
-1.57463e-26
-6.55715e-27
-2.67e-27
-1.06283e-27
-4.13438e-28
-1.57086e-28
-5.82571e-29
-2.10699e-29
-7.42275e-30
-2.54295e-30
-8.4526e-31
-2.71662e-31
-8.39763e-32
-2.47553e-32
-6.85441e-33
-1.72857e-33
-3.67323e-34
-4.75472e-35
9.96368e-36
1.18962e-35
6.70789e-36
3.07491e-36
1.26652e-36
4.85306e-37
1.75354e-37
6.00809e-38
1.91521e-38
4.907e-20
1.38165e-19
1.82796e-20
-9.57579e-20
-1.36498e-19
-1.27488e-19
-1.00254e-19
-7.14994e-20
-4.78068e-20
-3.03053e-20
-1.82549e-20
-1.05785e-20
-6.43024e-21
-4.45696e-21
-3.44123e-21
-2.74814e-21
-2.16031e-21
-1.64167e-21
-1.20355e-21
-8.53988e-22
-5.89201e-22
-3.97036e-22
-2.62298e-22
-1.70344e-22
-1.08992e-22
-6.8827e-23
-4.29866e-23
-2.64799e-23
-1.51576e-23
-5.50694e-24
3.61634e-24
1.14067e-23
1.67462e-23
1.92197e-23
1.91908e-23
1.74355e-23
1.4772e-23
1.18511e-23
9.0951e-24
6.72397e-24
4.81196e-24
3.3445e-24
2.26245e-24
1.49142e-24
9.58615e-25
6.00527e-25
3.66152e-25
2.16756e-25
1.24054e-25
6.83129e-26
3.61681e-26
1.86288e-26
9.66932e-27
5.37539e-27
3.37571e-27
2.37678e-27
1.76583e-27
1.30471e-27
9.26732e-28
6.1931e-28
3.60633e-28
1.09316e-28
-1.32919e-28
-3.15461e-28
-3.95379e-28
-3.75353e-28
-2.94136e-28
-1.96347e-28
-1.10571e-28
-4.67313e-29
-7.05807e-30
1.07992e-29
1.38493e-29
1.16664e-29
1.3761e-29
1.84043e-29
1.85096e-29
1.2801e-29
3.25374e-30
-1.07118e-29
-1.49736e-29
-1.09772e-29
-1.67355e-29
-6.35444e-29
-9.25673e-29
1.31891e-27
1.21463e-26
4.30353e-26
-7.25633e-26
-1.72268e-24
-9.24577e-24
-1.2927e-23
1.63955e-22
1.40153e-21
4.88317e-21
-3.54743e-21
-1.4408e-19
-8.5564e-19
-2.1276e-18
-3.48608e-18
-4.10596e-18
-3.04801e-18
4.13236e-19
6.51613e-18
1.48925e-17
2.46331e-17
3.44811e-17
4.31098e-17
4.93931e-17
5.26066e-17
5.25213e-17
4.93861e-17
4.38235e-17
3.66739e-17
2.88305e-17
2.10998e-17
1.41057e-17
8.24334e-18
3.70135e-18
4.64573e-19
-1.60985e-18
-2.73982e-18
-3.16793e-18
-3.12396e-18
-2.80178e-18
-2.34938e-18
-1.86862e-18
-1.42171e-18
-1.04186e-18
-7.37669e-19
-5.06096e-19
-3.3721e-19
-2.18589e-19
-1.38049e-19
-8.496e-20
-5.11332e-20
-3.00813e-20
-1.73125e-20
-9.75499e-21
-5.38503e-21
-2.91411e-21
-1.54689e-21
-8.05972e-22
-4.12406e-22
-2.07331e-22
-1.02452e-22
-4.97845e-23
-2.37978e-23
-1.11931e-23
-5.18113e-24
-2.36069e-24
-1.05881e-24
-4.67483e-25
-2.03175e-25
-8.69136e-26
-3.659e-26
-1.51576e-26
-6.17751e-27
-2.47652e-27
-9.76442e-28
-3.78586e-28
-1.4433e-28
-5.40995e-29
-1.99376e-29
-7.22453e-30
-2.57415e-30
-9.01999e-31
-3.10888e-31
-1.05412e-31
-3.51623e-32
-1.15373e-32
-3.72183e-33
-1.17926e-33
-3.66355e-34
-1.11274e-34
-3.28956e-35
-9.4021e-36
-2.57194e-36
-6.64435e-37
-1.54703e-37
-2.64896e-18
-6.15366e-18
-1.05883e-18
3.43932e-18
5.04047e-18
4.7384e-18
3.74364e-18
2.68552e-18
1.81023e-18
1.16065e-18
7.09842e-19
4.16809e-19
2.51973e-19
1.69723e-19
1.27032e-19
9.96201e-20
7.7912e-20
5.94039e-20
4.39027e-20
3.14833e-20
2.19826e-20
1.50023e-20
1.00432e-20
6.61282e-21
4.29276e-21
2.75268e-21
1.74772e-21
1.10137e-21
6.68026e-22
3.05132e-22
-5.17819e-23
-3.81365e-22
-6.33484e-22
-7.7754e-22
-8.15347e-22
-7.71113e-22
-6.76498e-22
-5.60021e-22
-4.42384e-22
-3.36039e-22
-2.46774e-22
-1.7585e-22
-1.21895e-22
-8.23167e-23
-5.42043e-23
-3.48019e-23
-2.17656e-23
-1.32331e-23
-7.78363e-24
-4.39142e-24
-2.35078e-24
-1.18315e-24
-5.60193e-25
-2.56709e-25
-1.24295e-25
-7.27795e-26
-5.33755e-26
-4.3571e-26
-3.53081e-26
-2.70621e-26
-1.86725e-26
-8.23259e-27
4.62151e-27
1.67264e-26
2.41249e-26
2.52713e-26
2.15182e-26
1.55453e-26
9.57305e-27
4.59676e-27
1.08756e-27
-7.84881e-28
-1.29809e-27
-1.05233e-27
-1.04955e-27
-1.47744e-27
-1.69553e-27
-1.3872e-27
-7.56048e-28
8.6686e-28
1.77242e-27
1.35256e-27
6.59564e-28
-2.7604e-28
-5.60781e-28
1.4996e-26
1.16594e-25
-8.6545e-27
-3.8516e-24
-2.18346e-23
-1.30439e-23
5.06505e-22
2.89034e-21
1.9151e-21
-5.56526e-20
-2.67955e-19
2.58002e-19
8.52944e-18
3.3665e-17
8.17285e-17
1.53192e-16
2.41739e-16
3.35333e-16
4.18858e-16
4.77697e-16
5.0113e-16
4.84267e-16
4.28706e-16
3.41764e-16
2.34672e-16
1.20278e-16
1.08085e-17
-8.38748e-17
-1.57306e-16
-2.06673e-16
-2.32456e-16
-2.37615e-16
-2.26554e-16
-2.04472e-16
-1.7611e-16
-1.45548e-16
-1.15865e-16
-8.9084e-17
-6.62852e-17
-4.78019e-17
-3.34471e-17
-2.27219e-17
-1.49892e-17
-9.61923e-18
-6.00106e-18
-3.63936e-18
-2.145e-18
-1.22809e-18
-6.82503e-19
-3.67754e-19
-1.91828e-19
-9.66542e-20
-4.68919e-20
-2.18014e-20
-9.64284e-21
-4.00889e-21
-1.53215e-21
-5.12872e-22
-1.30033e-22
-6.22483e-24
2.21922e-23
2.10004e-23
1.38729e-23
7.80766e-24
3.95654e-24
1.84148e-24
7.90157e-25
3.09681e-25
1.07584e-25
3.03327e-26
4.49725e-27
-2.21949e-27
-2.82031e-27
-1.99363e-27
-1.16159e-27
-6.08958e-28
-2.97358e-28
-1.37635e-28
-6.10072e-29
-2.60687e-29
-1.07886e-29
-4.33937e-30
-1.70096e-30
-6.51219e-31
-2.43962e-31
-8.95623e-32
-3.2258e-32
-1.14076e-32
-3.96221e-33
-1.3513e-33
-4.52095e-34
-1.4813e-34
-4.74132e-35
-1.4794e-35
-4.41875e-36
1.18901e-16
2.28462e-16
4.69921e-17
-1.03371e-16
-1.57928e-16
-1.50576e-16
-1.20284e-16
-8.72764e-17
-5.95985e-17
-3.88113e-17
-2.41932e-17
-1.44713e-17
-8.77706e-18
-5.79425e-18
-4.21326e-18
-3.2359e-18
-2.50862e-18
-1.91321e-18
-1.42221e-18
-1.02901e-18
-7.26118e-19
-5.01238e-19
-3.39582e-19
-2.26383e-19
-1.48879e-19
-9.6797e-20
-6.23675e-20
-4.00133e-20
-2.53337e-20
-1.34037e-20
-1.32755e-21
1.06733e-20
2.08004e-20
2.75342e-20
3.04399e-20
3.0041e-20
2.73401e-20
2.33884e-20
1.90411e-20
1.48776e-20
1.12223e-20
8.20606e-21
5.83321e-21
4.03818e-21