/*--------------------------------*- C++ -*----------------------------------*\
| =========                 |                                                 |
| \\      /  F ield         | OpenFOAM: The Open Source CFD Toolbox           |
|  \\    /   O peration     | Version:  4.1                                   |
|   \\  /    A nd           | Web:      www.OpenFOAM.org                      |
|    \\/     M anipulation  |                                                 |
\*---------------------------------------------------------------------------*/
FoamFile
{
    version     2.0;
    format      ascii;
    class       volScalarField;
    location    "0.015";
    object      T;
}
// * * * * * * * * * * * * * * * * * * * * * * * * * * * * * * * * * * * * * //

dimensions      [0 0 0 1 0 0 0];

internalField   nonuniform List<scalar> 
12225
(
0.625082
0.501659
0.482429
0.479445
0.478893
0.478746
0.478693
0.478669
0.478654
0.478642
0.478625
0.478588
0.478494
0.478255
0.477657
0.476179
0.472485
0.462936
0.617081
0.498208
0.480748
0.478495
0.478335
0.478409
0.478486
0.478541
0.478576
0.478597
0.478601
0.478579
0.478497
0.478272
0.477701
0.476296
0.472875
0.464584
0.621282
0.500687
0.482151
0.479347
0.478884
0.478769
0.478724
0.478699
0.478683
0.478669
0.478651
0.478614
0.478525
0.478305
0.477769
0.476486
0.473504
0.466916
0.621277
0.500416
0.481761
0.479003
0.478628
0.478587
0.478593
0.478605
0.478614
0.478619
0.478615
0.478589
0.478513
0.478317
0.477838
0.476722
0.474253
0.46923
0.621238
0.500487
0.481847
0.479071
0.47869
0.478643
0.47864
0.478643
0.478644
0.478643
0.478635
0.478608
0.478537
0.47836
0.477944
0.47701
0.475049
0.471343
0.621177
0.50051
0.481888
0.479083
0.478687
0.478637
0.478634
0.478637
0.47864
0.47864
0.478633
0.47861
0.478548
0.478397
0.47805
0.477301
0.475806
0.473141
0.621178
0.500547
0.481941
0.479115
0.478704
0.47865
0.478644
0.478646
0.478647
0.478647
0.47864
0.47862
0.478567
0.478442
0.478164
0.477587
0.476488
0.474618
0.621179
0.500558
0.481969
0.479137
0.478717
0.478659
0.478652
0.478652
0.478653
0.478652
0.478646
0.478628
0.478584
0.47848
0.478256
0.477807
0.476978
0.47561
0.621177
0.500563
0.481988
0.479156
0.478731
0.478669
0.47866
0.478659
0.478659
0.478657
0.478652
0.478636
0.478599
0.478513
0.478334
0.477983
0.477353
0.476339
0.621174
0.500565
0.482002
0.479173
0.478745
0.47868
0.478669
0.478667
0.478666
0.478664
0.478659
0.478646
0.478615
0.478548
0.47841
0.478148
0.477691
0.476969
0.621171
0.500564
0.482012
0.479188
0.478759
0.478692
0.47868
0.478676
0.478674
0.478672
0.478667
0.478656
0.478632
0.478582
0.478481
0.478296
0.47798
0.477491
0.621167
0.500561
0.482017
0.479198
0.478771
0.478704
0.47869
0.478686
0.478683
0.47868
0.478676
0.478667
0.47865
0.478614
0.478545
0.478421
0.478215
0.477901
0.621164
0.500557
0.482019
0.479205
0.47878
0.478714
0.4787
0.478696
0.478692
0.478689
0.478686
0.478678
0.478666
0.478642
0.478598
0.47852
0.478394
0.478205
0.621161
0.500553
0.482019
0.479209
0.478786
0.47872
0.478708
0.478704
0.478701
0.478698
0.478694
0.47869
0.478681
0.478666
0.478639
0.478594
0.478522
0.478416
0.621158
0.500549
0.482017
0.47921
0.478789
0.478725
0.478713
0.47871
0.478708
0.478705
0.478703
0.478699
0.478694
0.478684
0.478669
0.478645
0.478607
0.478553
0.621156
0.500546
0.482015
0.479209
0.47879
0.478728
0.478717
0.478714
0.478712
0.47871
0.478709
0.478707
0.478703
0.478698
0.47869
0.478677
0.478659
0.478634
0.621154
0.500544
0.482013
0.479208
0.47879
0.478728
0.478718
0.478716
0.478714
0.478713
0.478712
0.47871
0.478708
0.478706
0.478702
0.478696
0.478687
0.478676
0.621154
0.500543
0.482012
0.479208
0.47879
0.478728
0.478718
0.478715
0.478714
0.478714
0.478713
0.478712
0.478711
0.478708
0.478705
0.478702
0.478699
0.478695
0.621154
0.500543
0.482012
0.479207
0.478789
0.478728
0.478718
0.478714
0.478712
0.478712
0.47871
0.478709
0.478708
0.478707
0.478706
0.478703
0.478701
0.478699
0.621154
0.500544
0.482012
0.479207
0.478788
0.478725
0.478715
0.478711
0.478709
0.478707
0.478706
0.478705
0.478704
0.478703
0.478702
0.4787
0.478699
0.478699
0.621154
0.500545
0.482014
0.479206
0.478784
0.47872
0.478709
0.478705
0.478703
0.478701
0.478699
0.478698
0.478697
0.478696
0.478696
0.478695
0.478693
0.478694
0.621154
0.500547
0.482015
0.479204
0.47878
0.478714
0.478702
0.478698
0.478696
0.478694
0.478693
0.478692
0.478692
0.478691
0.478691
0.47869
0.478689
0.478689
0.621152
0.500551
0.482014
0.479195
0.478767
0.478701
0.478689
0.478685
0.478684
0.478683
0.478683
0.478682
0.478682
0.478683
0.478682
0.478682
0.478682
0.478683
0.621147
0.500559
0.482014
0.479187
0.478759
0.478694
0.478684
0.478681
0.478681
0.47868
0.47868
0.47868
0.478681
0.478681
0.478681
0.478681
0.478681
0.478682
0.621134
0.500551
0.481983
0.479149
0.478725
0.478665
0.478657
0.478657
0.478658
0.47866
0.478662
0.478663
0.478665
0.478667
0.478669
0.47867
0.478671
0.478672
0.621195
0.500594
0.48198
0.479154
0.478749
0.478696
0.478689
0.478687
0.478686
0.478685
0.478684
0.478682
0.478681
0.47868
0.47868
0.47868
0.478679
0.47868
0.621276
0.500532
0.481808
0.478971
0.478582
0.478548
0.478561
0.47858
0.478597
0.478611
0.478622
0.478631
0.478639
0.478645
0.478651
0.478655
0.478659
0.478661
0.621626
0.501078
0.482445
0.479563
0.479064
0.478923
0.47885
0.478804
0.478771
0.478747
0.47873
0.478716
0.478707
0.4787
0.478695
0.478691
0.47869
0.478684
0.617042
0.497852
0.480426
0.478232
0.478138
0.478261
0.478372
0.478454
0.478512
0.478553
0.478582
0.478604
0.47862
0.478632
0.478642
0.47865
0.478659
0.478657
0.625111
0.502056
0.482622
0.479575
0.479005
0.478839
0.47877
0.478733
0.478711
0.478697
0.478687
0.47868
0.478676
0.478673
0.478671
0.478671
0.478674
0.478662
0.0447949
0.0447654
0.0447061
0.0446182
0.0445022
0.0443577
0.0441854
0.0439859
0.0437595
0.0435071
0.0432299
0.0429284
0.0426036
0.0422565
0.041888
0.0414992
0.0410912
0.0406651
0.0402221
0.0397633
0.0392898
0.0388027
0.0383034
0.0377928
0.0372721
0.0367424
0.0362048
0.0356605
0.0351103
0.0345553
0.0339966
0.0334349
0.0328713
0.0323066
0.0317417
0.0311772
0.0306139
0.0300526
0.0294939
0.0289383
0.0283864
0.0278387
0.0272958
0.0267579
0.0262254
0.0256988
0.0251782
0.0246639
0.0241561
0.023655
0.0231607
0.0226733
0.0221929
0.0217194
0.0212529
0.0207934
0.0203409
0.0198952
0.0194563
0.0190241
0.0185986
0.0181794
0.0177667
0.0173601
0.0169597
0.0165651
0.0161764
0.0157933
0.0154158
0.0150437
0.0146768
0.0143151
0.0139585
0.0136068
0.0132599
0.0129177
0.0125802
0.0122473
0.0119188
0.0115947
0.011275
0.0109594
0.0106481
0.0103408
0.0100375
0.00973817
0.00944264
0.00915087
0.00886276
0.00857824
0.00829722
0.00801964
0.00774542
0.00747451
0.00720688
0.00694249
0.00668136
0.00642349
0.00616894
0.00591776
0.00567005
0.00542593
0.00518553
0.004949
0.00471653
0.0044883
0.00426451
0.00404538
0.00383111
0.00362192
0.003418
0.00321957
0.00302682
0.00283993
0.00265908
0.00248442
0.00231611
0.00215425
0.00199898
0.00185036
0.00170846
0.00157333
0.00144499
0.00132343
0.00120862
0.0011005
0.000999004
0.000904014
0.000815408
0.000733033
0.000656717
0.000586268
0.000521473
0.000462106
0.000407925
0.000358676
0.000314094
0.00027391
0.000237847
0.000205629
0.000176977
0.000151617
0.00012928
0.000109702
9.26303e-05
7.78208e-05
6.50422e-05
5.40757e-05
4.47165e-05
3.67744e-05
3.00736e-05
2.44535e-05
1.97681e-05
1.58859e-05
1.26891e-05
1.00736e-05
7.94735e-06
6.23021e-06
4.85268e-06
3.75506e-06
2.88649e-06
2.2039e-06
1.67136e-06
1.25876e-06
9.4134e-07
6.99041e-07
5.15414e-07
3.77294e-07
2.74182e-07
1.97789e-07
1.41624e-07
1.00649e-07
7.09877e-08
4.96836e-08
3.45023e-08
2.3769e-08
1.62418e-08
1.1005e-08
7.40054e-09
4.94829e-09
0.0458036
0.045772
0.0457111
0.0456202
0.0454998
0.0453505
0.045173
0.0449679
0.0447356
0.0444771
0.0441933
0.0438851
0.0435536
0.0431997
0.0428246
0.0424292
0.0420147
0.0415823
0.0411331
0.0406681
0.0401886
0.0396957
0.0391905
0.0386742
0.0381479
0.0376127
0.0370696
0.0365197
0.0359641
0.0354037
0.0348396
0.0342726
0.0337036
0.0331335
0.0325631
0.0319932
0.0314246
0.0308578
0.0302936
0.0297325
0.0291751
0.0286219
0.0280733
0.0275298
0.0269918
0.0264595
0.0259333
0.0254134
0.0248999
0.0243931
0.0238931
0.0234
0.0229138
0.0224346
0.0219624
0.0214971
0.0210388
0.0205874
0.0201427
0.0197047
0.0192733
0.0188484
0.0184297
0.0180173
0.0176109
0.0172104
0.0168157
0.0164266
0.016043
0.0156647
0.0152916
0.0149237
0.0145607
0.0142025
0.0138492
0.0135005
0.0131563
0.0128166
0.0124813
0.0121503
0.0118236
0.0115009
0.0111823
0.0108677
0.010557
0.0102501
0.00994692
0.00964734
0.00935129
0.00905869
0.00876943
0.00848345
0.00820067
0.00792102
0.00764445
0.00737094
0.00710048
0.00683308
0.00656878
0.00630764
0.00604977
0.00579527
0.00554429
0.005297
0.00505358
0.00481425
0.00457923
0.00434873
0.004123
0.00390226
0.00368676
0.00347671
0.00327234
0.00307386
0.00288148
0.00269539
0.00251575
0.00234272
0.00217645
0.00201704
0.00186458
0.00171916
0.0015808
0.00144954
0.00132536
0.00120823
0.00109809
0.000994842
0.000898377
0.000808552
0.000725202
0.000648138
0.00057715
0.000512009
0.000452469
0.000398268
0.000349132
0.00030478
0.000264921
0.000229262
0.000197509
0.000169367
0.000144547
0.000122768
0.000103753
8.72385e-05
7.29728e-05
6.07169e-05
5.02463e-05
4.13521e-05
3.38408e-05
2.75351e-05
2.22734e-05
1.791e-05
1.43142e-05
1.13699e-05
8.97458e-06
7.03887e-06
5.485e-06
4.24611e-06
3.26522e-06
2.49393e-06
1.89192e-06
1.4253e-06
1.06624e-06
7.92012e-07
5.84105e-07
4.27667e-07
3.10844e-07
2.2427e-07
1.60605e-07
1.14149e-07
8.05141e-08
5.63533e-08
3.91345e-08
2.69601e-08
1.84218e-08
1.24817e-08
8.39068e-09
5.60347e-09
0.0478309
0.047791
0.0477219
0.0476221
0.0474918
0.0473314
0.0471419
0.0469242
0.0466792
0.0464079
0.0461113
0.0457903
0.0454461
0.0450797
0.0446922
0.0442847
0.0438583
0.0434142
0.0429534
0.042477
0.0419864
0.0414824
0.0409664
0.0404393
0.0399024
0.0393566
0.038803
0.0382427
0.0376766
0.0371058
0.0365312
0.0359538
0.0353743
0.0347937
0.0342128
0.0336324
0.0330531
0.0324756
0.0319006
0.0313288
0.0307605
0.0301965
0.029637
0.0290825
0.0285334
0.0279901
0.0274527
0.0269217
0.026397
0.025879
0.0253678
0.0248634
0.024366
0.0238755
0.0233921
0.0229155
0.0224459
0.0219831
0.021527
0.0210776
0.0206348
0.0201984
0.0197682
0.0193442
0.0189261
0.0185139
0.0181074
0.0177064
0.0173107
0.0169203
0.016535
0.0161547
0.0157792
0.0154085
0.0150423
0.0146806
0.0143233
0.0139704
0.0136216
0.0132769
0.0129363
0.0125996
0.0122667
0.0119376
0.0116121
0.0112902
0.0109718
0.0106568
0.010345
0.0100363
0.00973068
0.009428
0.00912817
0.00883111
0.00853674
0.00824502
0.00795593
0.00766947
0.00738567
0.00710458
0.00682631
0.00655098
0.00627874
0.00600979
0.00574433
0.00548262
0.0052249
0.00497144
0.00472252
0.00447841
0.00423941
0.00400579
0.00377782
0.00355579
0.00333995
0.00313054
0.00292781
0.00273197
0.00254322
0.00236173
0.00218765
0.00202111
0.00186221
0.00171102
0.00156758
0.00143189
0.00130393
0.00118366
0.00107096
0.000965744
0.000867843
0.000777083
0.000693259
0.000616141
0.000545473
0.000480983
0.000422377
0.000369349
0.000321582
0.00027875
0.000240524
0.000206573
0.000176568
0.000150183
0.000127102
0.000107018
8.96368e-05
7.46774e-05
6.18753e-05
5.09828e-05
4.17693e-05
3.40229e-05
2.75499e-05
2.21745e-05
1.77388e-05
1.41024e-05
1.11406e-05
8.74444e-06
6.81897e-06
5.28225e-06
4.06458e-06
3.10635e-06
2.35773e-06
1.77706e-06
1.32996e-06
9.88257e-07
7.29062e-07
5.33939e-07
3.88169e-07
2.80106e-07
2.00615e-07
1.42597e-07
1.00584e-07
7.04002e-08
4.88873e-08
3.36763e-08
2.30085e-08
1.55873e-08
1.04741e-08
6.9847e-09
0.0508942
0.0508446
0.0507646
0.0506527
0.0505084
0.0503327
0.0501268
0.049892
0.0496295
0.0493404
0.0490257
0.0486867
0.0483245
0.0479401
0.0475347
0.0471095
0.0466656
0.0462041
0.0457261
0.0452328
0.0447253
0.0442048
0.0436723
0.0431288
0.0425756
0.0420137
0.041444
0.0408676
0.0402856
0.0396988
0.0391082
0.0385147
0.0379192
0.0373225
0.0367254
0.0361288
0.0355332
0.0349394
0.0343481
0.0337598
0.033175
0.0325944
0.0320183
0.0314471
0.0308813
0.0303212
0.0297671
0.0292192
0.0286777
0.0281429
0.0276148
0.0270935
0.0265792
0.0260718
0.0255713
0.0250778
0.0245912
0.0241114
0.0236383
0.0231719
0.0227119
0.0222583
0.0218108
0.0213695
0.020934
0.0205042
0.02008
0.0196613
0.0192477
0.0188392
0.0184356
0.0180369
0.0176427
0.0172531
0.0168678
0.0164868
0.0161099
0.015737
0.0153681
0.015003
0.0146416
0.0142839
0.0139297
0.0135789
0.0132315
0.0128872
0.012546
0.0122078
0.0118724
0.0115397
0.0112096
0.0108819
0.0105566
0.0102334
0.00991235
0.0095933
0.00927623
0.00896111
0.00864796
0.00833683
0.00802781
0.00772103
0.00741667
0.00711494
0.00681611
0.00652046
0.00622828
0.00593992
0.0056557
0.00537598
0.00510111
0.00483146
0.00456739
0.00430925
0.00405739
0.00381216
0.00357389
0.00334287
0.00311941
0.00290378
0.00269621
0.00249692
0.00230611
0.00212391
0.00195044
0.00178579
0.00162999
0.00148305
0.00134492
0.00121552
0.00109473
0.000982399
0.000878328
0.000782288
0.000694018
0.000613225
0.000539593
0.000472782
0.000412434
0.000358177
0.000309628
0.000266399
0.0002281
0.000194342
0.000164744
0.000138932
0.000116545
9.72378e-05
8.06821e-05
6.65691e-05
5.46099e-05
4.45372e-05
3.61064e-05
2.90942e-05
2.3299e-05
1.85415e-05
1.46612e-05
1.1518e-05
8.98943e-06
6.96916e-06
5.36646e-06
4.10402e-06
3.11681e-06
2.35044e-06
1.7599e-06
1.30827e-06
9.65477e-07
7.07289e-07
5.14316e-07
3.71204e-07
2.65897e-07
1.89016e-07
1.33332e-07
9.3321e-08
6.48011e-08
4.46354e-08
3.04931e-08
2.06556e-08
1.38762e-08
9.24497e-09
0.0550143
0.0549548
0.0548629
0.054737
0.0545766
0.054383
0.0541578
0.0539025
0.0536186
0.0533074
0.0529703
0.0526085
0.0522233
0.051816
0.0513876
0.0509395
0.0504727
0.0499884
0.0494879
0.0489722
0.0484424
0.0478997
0.0473452
0.0467799
0.0462049
0.0456212
0.0450299
0.0444319
0.0438282
0.0432198
0.0426077
0.0419926
0.0413754
0.040757
0.0401383
0.0395198
0.0389024
0.0382867
0.0376734
0.037063
0.0364562
0.0358534
0.0352551
0.0346617
0.0340737
0.0334913
0.0329148
0.0323446
0.0317807
0.0312235
0.030673
0.0301293
0.0295926
0.0290627
0.0285399
0.0280239
0.0275148
0.0270125
0.0265169
0.0260279
0.0255453
0.0250689
0.0245987
0.0241345
0.023676
0.023223
0.0227755
0.0223332
0.021896
0.0214636
0.0210359
0.0206127
0.0201939
0.0197793
0.0193688
0.0189622
0.0185594
0.0181603
0.0177647
0.0173726
0.0169838
0.0165982
0.0162157
0.0158362
0.0154596
0.0150856
0.0147142
0.0143453
0.0139786
0.013614
0.0132513
0.0128904
0.0125311
0.0121731
0.0118165
0.011461
0.0111065
0.0107531
0.0104006
0.0100492
0.00969886
0.00934978
0.00900215
0.00865622
0.00831229
0.00797071
0.00763184
0.00729608
0.00696385
0.00663561
0.0063118
0.00599289
0.00567935
0.00537165
0.00507027
0.00477567
0.00448831
0.00420863
0.00393706
0.003674
0.00341981
0.00317485
0.00293941
0.00271378
0.00249818
0.0022928
0.00209776
0.00191315
0.00173902
0.00157533
0.00142203
0.00127899
0.00114603
0.00102295
0.00090947
0.000805288
0.000710057
0.000623397
0.000544898
0.000474127
0.000410632
0.000353949
0.000303603
0.000259118
0.000220021
0.000185849
0.000156146
0.000130475
0.000108417
8.95771e-05
7.35826e-05
6.00867e-05
4.87718e-05
3.93454e-05
3.15426e-05
2.5128e-05
1.98892e-05
1.56398e-05
1.22169e-05
9.47892e-06
7.30442e-06
5.58986e-06
4.24782e-06
3.20512e-06
2.40103e-06
1.78565e-06
1.31828e-06
9.66053e-07
7.0267e-07
5.07257e-07
3.63413e-07
2.58367e-07
1.82266e-07
1.27574e-07
8.85852e-08
6.10161e-08
4.16821e-08
2.82342e-08
1.89662e-08
1.26312e-08
0.0602409
0.0601706
0.0600653
0.0599235
0.0597449
0.0595309
0.0592836
0.0590048
0.0586962
0.0583593
0.0579958
0.057607
0.0571945
0.0567594
0.0563032
0.0558271
0.0553323
0.0548201
0.0542916
0.0537481
0.0531905
0.0526201
0.052038
0.0514452
0.0508427
0.0502316
0.049613
0.0489877
0.0483567
0.0477211
0.0470817
0.0464393
0.0457948
0.0451491
0.044503
0.0438571
0.0432122
0.0425691
0.0419282
0.0412903
0.0406558
0.0400253
0.0393994
0.0387783
0.0381625
0.0375523
0.0369481
0.0363501
0.0357585
0.0351735
0.0345953
0.0340239
0.0334594
0.0329018
0.0323512
0.0318075
0.0312707
0.0307406
0.0302172
0.0297002
0.0291897
0.0286853
0.028187
0.0276944
0.0272075
0.026726
0.0262497
0.0257785
0.025312
0.0248501
0.0243926
0.0239393
0.02349
0.0230446
0.0226029
0.0221646
0.0217298
0.0212982
0.0208696
0.020444
0.0200213
0.0196012
0.0191837
0.0187685
0.0183557
0.0179449
0.017536
0.0171289
0.0167233
0.016319
0.0159158
0.0155134
0.0151117
0.0147104
0.0143092
0.0139081
0.0135068
0.0131053
0.0127034
0.0123013
0.0118989
0.0114964
0.011094
0.010692
0.0102909
0.00989083
0.00949243
0.00909613
0.00870245
0.00831195
0.00792521
0.00754281
0.00716536
0.0067935
0.00642784
0.00606902
0.00571766
0.00537437
0.00503974
0.00471436
0.00439877
0.0040935
0.00379901
0.00351574
0.00324408
0.00298437
0.00273686
0.00250178
0.00227927
0.0020694
0.00187219
0.00168758
0.00151544
0.00135557
0.00120773
0.00107159
0.000946784
0.000832884
0.000729421
0.00063589
0.000551752
0.000476448
0.000409396
0.000350007
0.000297688
0.000251856
0.000211932
0.000177355
0.000147583
0.000122107
0.000100438
8.21201e-05
6.67374e-05
5.39017e-05
4.3261e-05
3.44994e-05
2.73339e-05
2.1514e-05
1.682e-05
1.30609e-05
1.00722e-05
7.71327e-06
5.86512e-06
4.42796e-06
3.31881e-06
2.46934e-06
1.82377e-06
1.33696e-06
9.72751e-07
7.02405e-07
5.03324e-07
3.57892e-07
2.52504e-07
1.76749e-07
1.22737e-07
8.4541e-08
5.77541e-08
3.91231e-08
2.62825e-08
1.75027e-08
0.0666317
0.0665498
0.0664295
0.06627
0.0660712
0.0658348
0.065563
0.0652579
0.0649215
0.0645555
0.0641619
0.0637422
0.063298
0.0628308
0.062342
0.0618331
0.0613053
0.0607599
0.0601982
0.0596214
0.0590306
0.0584269
0.0578116
0.0571856
0.05655
0.0559058
0.0552541
0.0545958
0.0539319
0.0532633
0.052591
0.0519157
0.0512383
0.0505596
0.0498805
0.0492017
0.0485239
0.0478477
0.0471738
0.0465029
0.0458354
0.0451719
0.0445129
0.0438588
0.04321
0.0425669
0.0419297
0.0412988
0.0406743
0.0400564
0.0394453
0.0388411
0.0382438
0.0376534
0.0370701
0.0364936
0.035924
0.0353611
0.0348048
0.034255
0.0337114
0.033174
0.0326424
0.0321165
0.0315961
0.0310808
0.0305706
0.0300651
0.0295641
0.0290673
0.0285746
0.0280858
0.0276005
0.0271186
0.0266399
0.0261643
0.0256915
0.0252214
0.0247538
0.0242885
0.0238255
0.0233644
0.0229053
0.0224479
0.021992
0.0215374
0.0210839
0.0206313
0.0201793
0.0197277
0.0192761
0.0188243
0.0183719
0.0179186
0.0174641
0.0170082
0.0165507
0.0160912
0.0156298
0.0151663
0.0147009
0.0142336
0.0137647
0.0132944
0.0128233
0.0123518
0.0118804
0.0114097
0.0109403
0.0104729
0.0100082
0.00954701
0.00909002
0.00863807
0.00819196
0.00775253
0.00732061
0.00689702
0.00648259
0.0060781
0.00568435
0.00530207
0.00493196
0.00457469
0.00423084
0.00390095
0.00358549
0.00328485
0.00299932
0.00272913
0.00247441
0.0022352
0.00201145
0.00180301
0.00160967
0.00143111
0.00126694
0.00111669
0.000979842
0.000855794
0.000743914
0.000643527
0.000553921
0.000474366
0.000404119
0.000342444
0.000288605
0.000241878
0.000201564
0.000167
0.000137548
0.000112608
9.16269e-05
7.40906e-05
5.95309e-05
4.75244e-05
3.76911e-05
2.96938e-05
2.32355e-05
1.80575e-05
1.39361e-05
1.06798e-05
8.1262e-06
6.13868e-06
4.60355e-06
3.42695e-06
2.53215e-06
1.85699e-06
1.35157e-06
9.76227e-07
6.99708e-07
4.9763e-07
3.51148e-07
2.45827e-07
1.70721e-07
1.17602e-07
8.03466e-08
5.44338e-08
3.65737e-08
2.43589e-08
0.0742593
0.074164
0.0740269
0.0738476
0.0736264
0.0733651
0.0730662
0.0727319
0.0723646
0.0719663
0.0715389
0.0710843
0.0706042
0.0701005
0.0695745
0.0690278
0.068462
0.0678782
0.0672779
0.0666623
0.0660327
0.0653902
0.064736
0.0640711
0.0633966
0.0627137
0.0620232
0.0613262
0.0606236
0.0599164
0.0592054
0.0584916
0.0577757
0.0570586
0.0563411
0.0556239
0.0549077
0.0541932
0.0534811
0.0527719
0.0520662
0.0513646
0.0506675
0.0499753
0.0492885
0.0486074
0.0479324
0.0472636
0.0466013
0.0459457
0.045297
0.0446551
0.0440203
0.0433924
0.0427715
0.0421576
0.0415504
0.04095
0.0403562
0.0397687
0.0391874
0.0386122
0.0380426
0.0374786
0.0369198
0.036366
0.0358169
0.0352722
0.0347317
0.034195
0.033662
0.0331324
0.0326058
0.0320822
0.0315611
0.0310426
0.0305262
0.0300119
0.0294993
0.0289885
0.028479
0.0279709
0.0274638
0.0269576
0.0264521
0.0259469
0.0254419
0.0249368
0.0244312
0.0239248
0.0234172
0.022908
0.0223967
0.0218831
0.0213666
0.0208469
0.0203236
0.0197964
0.0192652
0.0187298
0.0181901
0.0176464
0.0170988
0.0165478
0.0159937
0.0154371
0.0148787
0.014319
0.0137588
0.0131989
0.0126403
0.0120837
0.0115303
0.0109809
0.0104367
0.00989858
0.00936776
0.0088453
0.00833227
0.00782976
0.00733884
0.00686053
0.00639582
0.00594566
0.00551092
0.00509241
0.00469085
0.00430687
0.00394101
0.00359367
0.00326518
0.00295572
0.00266536
0.00239406
0.00214166
0.00190788
0.00169232
0.00149451
0.00131383
0.00114962
0.00100114
0.000867574
0.000748064
0.000641705
0.00054757
0.000464742
0.000392281
0.000329262
0.000274785
0.000227984
0.000188029
0.000154136
0.000125573
0.00010166
8.17751e-05
6.53523e-05
5.1883e-05
4.09138e-05
3.20443e-05
2.49245e-05
1.92511e-05
1.47639e-05
1.12415e-05
8.49745e-06
6.37618e-06
4.74906e-06
3.51074e-06
2.57577e-06
1.87544e-06
1.35506e-06
9.71516e-07
6.91107e-07
4.8777e-07
3.41529e-07
2.37217e-07
1.63429e-07
1.11671e-07
7.56681e-08
5.08512e-08
3.38747e-08
0.0832068
0.0830962
0.08294
0.0827386
0.0824923
0.0822033
0.0818743
0.0815078
0.0811062
0.0806718
0.0802067
0.079713
0.0791927
0.0786477
0.0780796
0.0774901
0.0768809
0.0762534
0.075609
0.074949
0.0742749
0.0735878
0.0728888
0.0721793
0.0714602
0.0707326
0.0699976
0.0692561
0.0685092
0.0677577
0.0670026
0.0662447
0.0654849
0.0647239
0.0639627
0.0632018
0.0624421
0.0616842
0.0609288
0.0601764
0.0594276
0.058683
0.057943
0.057208
0.0564786
0.0557549
0.0550374
0.0543262
0.0536216
0.0529239
0.052233
0.0515491
0.0508723
0.0502025
0.0495397
0.0488839
0.0482349
0.0475926
0.0469568
0.0463273
0.0457039
0.0450864
0.0444745
0.0438678
0.0432661
0.0426692
0.0420766
0.0414881
0.0409034
0.0403221
0.0397439
0.0391686
0.0385958
0.0380253
0.0374568
0.0368901
0.0363248
0.0357608
0.0351978
0.0346356
0.0340741
0.0335128
0.0329518
0.0323906
0.0318291
0.0312669
0.0307037
0.0301392
0.029573
0.0290046
0.0284335
0.0278593
0.0272813
0.0266991
0.026112
0.0255195
0.0249212
0.0243166
0.0237053
0.0230872
0.0224621
0.0218303
0.0211918
0.0205472
0.0198967
0.0192411
0.018581
0.0179171
0.0172504
0.0165817
0.0159121
0.0152426
0.0145746
0.0139091
0.0132474
0.012591
0.0119411
0.0112992
0.0106667
0.010045
0.00943553
0.00883963
0.00825869
0.00769402
0.00714684
0.00661833
0.00610953
0.00562141
0.0051548
0.00471042
0.00428881
0.0038904
0.00351544
0.00316403
0.00283613
0.00253154
0.00224991
0.00199073
0.00175337
0.00153707
0.00134097
0.00116413
0.00100552
0.000864019
0.0007385
0.000627802
0.000530746
0.00044616
0.00037289
0.00030982
0.000255873
0.000210028
0.000171323
0.000138866
0.000111833
8.94725e-05
7.11066e-05
5.61289e-05
4.40025e-05
3.42562e-05
2.64809e-05
2.03244e-05
1.54867e-05
1.17143e-05
8.79553e-06
6.5548e-06
4.84819e-06
3.55872e-06
2.59224e-06
1.87368e-06
1.34378e-06
9.56199e-07
6.75033e-07
4.72747e-07
3.2842e-07
2.26301e-07
1.54659e-07
1.04818e-07
7.04572e-08
4.69463e-08
0.0935682
0.09344
0.0932621
0.0930355
0.0927611
0.0924411
0.0920785
0.091676
0.091236
0.0907613
0.090254
0.0897165
0.0891509
0.0885594
0.0879438
0.0873061
0.0866478
0.0859707
0.0852763
0.0845661
0.0838414
0.0831037
0.0823541
0.0815939
0.0808242
0.0800461
0.0792608
0.0784691
0.0776721
0.0768708
0.076066
0.0752587
0.0744496
0.0736397
0.0728296
0.0720201
0.071212
0.0704058
0.0696023
0.0688021
0.0680056
0.0672135
0.0664261
0.065644
0.0648676
0.0640971
0.0633328
0.0625751
0.0618242
0.0610801
0.0603431
0.0596131
0.0588903
0.0581745
0.0574659
0.0567641
0.0560693
0.055381
0.0546992
0.0540237
0.0533541
0.0526902
0.0520317
0.0513782
0.0507295
0.0500851
0.0494448
0.0488081
0.0481747
0.0475443
0.0469164
0.0462908
0.0456671
0.0450449
0.044424
0.0438041
0.0431848
0.042566
0.0419472
0.0413284
0.0407091
0.0400892
0.0394683
0.0388463
0.0382227
0.0375973
0.0369696
0.0363391
0.0357055
0.0350682
0.0344265
0.0337799
0.0331275
0.0324687
0.0318027
0.0311288
0.0304463
0.0297546
0.0290532
0.0283418
0.0276202
0.0268885
0.0261469
0.0253958
0.0246355
0.0238666
0.02309
0.0223064
0.0215168
0.0207222
0.0199239
0.0191231
0.0183212
0.0175197
0.01672
0.015924
0.0151332
0.0143494
0.0135744
0.0128101
0.0120582
0.0113205
0.010599
0.00989529
0.0092111
0.00854805
0.00790763
0.00729123
0.00670011
0.00613534
0.00559783
0.00508832
0.00460733
0.0041552
0.00373205
0.00333786
0.00297233
0.00263501
0.00232524
0.0020422
0.00178494
0.00155234
0.00134319
0.00115616
0.000989862
0.000842863
0.000713693
0.000600877
0.000502953
0.00041849
0.000346105
0.000284476
0.000232354
0.00018857
0.000152043
0.000121781
9.68891e-05
7.65601e-05
6.00787e-05
4.68153e-05
3.62212e-05
2.78232e-05
2.1217e-05
1.60605e-05
1.20669e-05
8.99833e-06
6.65932e-06
4.89069e-06
3.56415e-06
2.57727e-06
1.84908e-06
1.31619e-06
9.29442e-07
6.51085e-07
4.52416e-07
3.1181e-07
2.13143e-07
1.44488e-07
9.71477e-08
6.47467e-08
0.105447
0.105299
0.105096
0.10484
0.104534
0.104179
0.103778
0.103335
0.102852
0.102331
0.101776
0.101189
0.100573
0.0999287
0.0992595
0.0985671
0.0978534
0.0971203
0.0963695
0.0956026
0.094821
0.0940263
0.0932197
0.0924027
0.0915762
0.0907417
0.0899001
0.0890524
0.0881998
0.0873431
0.0864833
0.0856213
0.0847578
0.0838938
0.08303
0.0821672
0.081306
0.0804471
0.0795911
0.0787387
0.0778903
0.0770466
0.0762079
0.0753747
0.0745473
0.0737261
0.0729114
0.0721034
0.0713023
0.0705082
0.0697213
0.0689416
0.0681691
0.0674038
0.0666455
0.0658943
0.0651498
0.0644119
0.0636804
0.062955
0.0622353
0.0615212
0.0608122
0.060108
0.0594082
0.0587124
0.0580202
0.0573312
0.0566449
0.055961
0.0552791
0.0545987
0.0539195
0.0532411
0.0525632
0.0518853
0.0512072
0.0505285
0.0498489
0.0491681
0.0484859
0.0478018
0.0471157
0.0464271
0.0457357
0.045041
0.0443427
0.0436401
0.0429327
0.0422198
0.0415007
0.0407745
0.0400404
0.0392974
0.0385444
0.0377807
0.0370052
0.0362171
0.0354157
0.0346007
0.0337718
0.0329289
0.0320721
0.0312017
0.0303182
0.029422
0.028514
0.027595
0.0266661
0.0257283
0.0247831
0.0238318
0.0228761
0.0219177
0.0209584
0.0200002
0.0190451
0.0180952
0.0171529
0.0162204
0.0152999
0.0143939
0.0135047
0.0126345
0.0117857
0.0109603
0.0101605
0.00938821
0.00864518
0.00793301
0.00725308
0.00660655
0.00599435
0.00541713
0.00487532
0.00436909
0.00389832
0.00346264
0.00306144
0.00269388
0.0023589
0.00205525
0.00178151
0.00153613
0.00131743
0.00112366
0.000953
0.000803623
0.000673689
0.000561387
0.000464954
0.000382694
0.000312995
0.000254343
0.000205328
0.000164657
0.00013115
0.000103744
8.14948e-05
6.35655e-05
4.92265e-05
3.78463e-05
2.8884e-05
2.18809e-05
1.64518e-05
1.22764e-05
9.09091e-06
6.68026e-06
4.87083e-06
3.52379e-06
2.52923e-06
1.801e-06
1.27222e-06
8.91475e-07
6.19623e-07
4.2716e-07
2.92066e-07
1.98041e-07
1.3319e-07
8.87914e-08
0.118955
0.118784
0.118552
0.118263
0.11792
0.117524
0.11708
0.11659
0.116057
0.115484
0.114875
0.114231
0.113556
0.112853
0.112122
0.111368
0.110591
0.109795
0.108981
0.10815
0.107304
0.106446
0.105575
0.104695
0.103805
0.102908
0.102004
0.101095
0.100181
0.0992633
0.0983432
0.0974213
0.0964986
0.0955759
0.0946538
0.0937331
0.0928145
0.0918987
0.0909863
0.0900778
0.0891737
0.0882746
0.0873809
0.086493
0.0856113
0.0847359
0.0838674
0.0830057
0.0821511
0.0813037
0.0804636
0.0796308
0.0788053
0.077987
0.0771758
0.0763715
0.0755739
0.0747829
0.0739981
0.0732192
0.0724459
0.0716778
0.0709146
0.0701558
0.0694011
0.0686498
0.0679017
0.0671562
0.0664129
0.0656714
0.0649311
0.0641916
0.0634525
0.0627133
0.0619737
0.0612332
0.0604915
0.0597481
0.0590028
0.0582551
0.0575047
0.0567513
0.0559945
0.055234
0.0544691
0.0536996
0.0529248
0.0521441
0.0513568
0.0505621
0.0497591
0.0489467
0.0481238
0.0472892
0.0464417
0.0455801
0.0447031
0.0438097
0.0428991
0.0419707
0.0410241
0.040059
0.0390756
0.0380739
0.0370542
0.0360171
0.0349632
0.0338934
0.0328088
0.0317106
0.0306003
0.0294793
0.0283496
0.027213
0.0260716
0.0249278
0.023784
0.0226427
0.0215066
0.0203785
0.0192614
0.0181581
0.0170716
0.0160048
0.0149607
0.0139422
0.012952
0.0119926
0.0110667
0.0101763
0.00932352
0.00851009
0.00773745
0.00700675
0.0063188
0.0056741
0.00507282
0.00451476
0.00399942
0.00352598
0.00309335
0.00270015
0.00234478
0.00202541
0.00174008
0.00148667
0.00126297
0.00106673
0.000895665
0.000747499
0.000620013
0.00051105
0.000418552
0.000340573
0.000275294
0.000221036
0.000176263
0.000139589
0.00010977
8.57078e-05
6.64386e-05
5.11263e-05
3.90532e-05
2.96087e-05
2.22793e-05
1.66367e-05
1.2328e-05
9.06451e-06
6.61299e-06
4.7866e-06
3.43723e-06
2.44859e-06
1.73033e-06
1.2129e-06
8.43294e-07
5.81526e-07
3.97724e-07
2.69762e-07
1.81477e-07
1.21015e-07
0.134213
0.134015
0.133749
0.133422
0.133035
0.132592
0.132096
0.131551
0.13096
0.130326
0.129654
0.128945
0.128202
0.127429
0.126629
0.125804
0.124956
0.124087
0.123201
0.122298
0.121381
0.120451
0.119509
0.118558
0.117599
0.116633
0.11566
0.114683
0.113702
0.112718
0.111733
0.110746
0.10976
0.108774
0.107789
0.106806
0.105827
0.10485
0.103877
0.102909
0.101946
0.100988
0.100036
0.0990906
0.0981514
0.0972188
0.0962933
0.0953749
0.0944637
0.09356
0.0926636
0.0917746
0.0908929
0.0900184
0.0891509
0.0882903
0.0874363
0.0865886
0.085747
0.084911
0.0840804
0.0832546
0.0824333
0.0816161
0.0808023
0.0799916
0.0791834
0.0783773
0.0775727
0.0767691
0.0759661
0.075163
0.0743594
0.0735549
0.072749
0.0719412
0.071131
0.0703182
0.0695021
0.0686826
0.0678591
0.0670312
0.0661986
0.0653608
0.0645172
0.0636673
0.0628105
0.061946
0.0610731
0.0601906
0.0592975
0.0583925
0.0574743
0.0565413
0.055592
0.0546249
0.0536386
0.0526316
0.0516031
0.0505523
0.0494785
0.0483813
0.0472605
0.0461162
0.0449483
0.0437575
0.0425441
0.041309
0.0400533
0.0387782
0.037485
0.0361756
0.0348519
0.0335159
0.0321701
0.030817
0.0294595
0.0281006
0.0267434
0.0253914
0.0240479
0.0227167
0.0214013
0.0201055
0.0188331
0.0175876
0.0163728
0.0151919
0.0140484
0.0129453
0.0118853
0.0108711
0.00990467
0.00898786
0.00812206
0.00730825
0.00654697
0.00583837
0.00518214
0.00457759
0.00402362
0.00351879
0.00306132
0.00264916
0.00228001
0.00195135
0.00166055
0.00140486
0.00118147
0.00098757
0.000820385
0.000677206
0.000555427
0.00045257
0.00036631
0.000294489
0.000235126
0.000186423
0.000146765
0.000114716
8.90159e-05
6.85666e-05
5.24231e-05
3.97797e-05