/*--------------------------------*- C++ -*----------------------------------*\
| =========                 |                                                 |
| \\      /  F ield         | OpenFOAM: The Open Source CFD Toolbox           |
|  \\    /   O peration     | Version:  4.1                                   |
|   \\  /    A nd           | Web:      www.OpenFOAM.org                      |
|    \\/     M anipulation  |                                                 |
\*---------------------------------------------------------------------------*/
FoamFile
{
    version     2.0;
    format      ascii;
    class       volScalarField;
    location    "0.045";
    object      T;
}
// * * * * * * * * * * * * * * * * * * * * * * * * * * * * * * * * * * * * * //

dimensions      [0 0 0 1 0 0 0];

internalField   nonuniform List<scalar> 
12225
(
0.625082
0.501659
0.482429
0.479445
0.478893
0.478746
0.478693
0.478669
0.478655
0.478646
0.478634
0.478612
0.478559
0.478424
0.478087
0.477254
0.475166
0.469815
0.617081
0.498208
0.480748
0.478495
0.478335
0.47841
0.478486
0.478541
0.478577
0.4786
0.47861
0.478603
0.47856
0.478436
0.478116
0.477324
0.475392
0.470701
0.621282
0.500687
0.482151
0.479347
0.478884
0.478769
0.478724
0.4787
0.478684
0.478672
0.478659
0.478636
0.478585
0.478461
0.478158
0.477433
0.475751
0.472028
0.621277
0.500416
0.481761
0.479003
0.478628
0.478587
0.478593
0.478605
0.478615
0.478622
0.478622
0.478611
0.478569
0.47846
0.478192
0.477563
0.476171
0.47333
0.621238
0.500487
0.481847
0.479071
0.47869
0.478643
0.47864
0.478643
0.478645
0.478646
0.478642
0.478628
0.478588
0.478489
0.478255
0.477728
0.476623
0.474526
0.621177
0.50051
0.481888
0.479083
0.478687
0.478637
0.478634
0.478637
0.478641
0.478642
0.478639
0.478628
0.478594
0.478509
0.478314
0.477893
0.47705
0.475543
0.621178
0.500547
0.481941
0.479115
0.478704
0.47865
0.478644
0.478646
0.478648
0.478649
0.478646
0.478636
0.478607
0.478537
0.47838
0.478055
0.477436
0.47638
0.621179
0.500558
0.481969
0.479137
0.478717
0.478659
0.478652
0.478652
0.478653
0.478654
0.478651
0.478642
0.478617
0.478559
0.478434
0.478181
0.477713
0.476941
0.621177
0.500563
0.481988
0.479156
0.478731
0.478669
0.47866
0.478659
0.478659
0.478659
0.478656
0.478648
0.478628
0.47858
0.478479
0.478281
0.477926
0.477354
0.621174
0.500565
0.482002
0.479173
0.478745
0.47868
0.478669
0.478667
0.478666
0.478666
0.478662
0.478656
0.478639
0.478601
0.478523
0.478376
0.478118
0.477712
0.621171
0.500564
0.482012
0.479188
0.478759
0.478692
0.47868
0.478676
0.478675
0.478673
0.47867
0.478664
0.478651
0.478623
0.478566
0.478461
0.478283
0.478008
0.621167
0.500561
0.482017
0.479198
0.478771
0.478704
0.47869
0.478686
0.478683
0.478681
0.478678
0.478673
0.478663
0.478643
0.478604
0.478534
0.478418
0.478242
0.621164
0.500557
0.482019
0.479205
0.47878
0.478714
0.4787
0.478696
0.478692
0.47869
0.478687
0.478683
0.478676
0.478662
0.478636
0.478593
0.478521
0.478415
0.621161
0.500553
0.482019
0.479209
0.478786
0.47872
0.478708
0.478704
0.478701
0.478698
0.478696
0.478692
0.478687
0.478678
0.478663
0.478637
0.478596
0.478537
0.621158
0.500549
0.482017
0.47921
0.478789
0.478725
0.478713
0.47871
0.478708
0.478706
0.478704
0.478701
0.478697
0.478691
0.478682
0.478668
0.478646
0.478617
0.621156
0.500546
0.482015
0.479209
0.47879
0.478728
0.478717
0.478714
0.478712
0.47871
0.478709
0.478708
0.478705
0.478701
0.478696
0.478689
0.478678
0.478664
0.621154
0.500544
0.482013
0.479208
0.47879
0.478728
0.478718
0.478716
0.478714
0.478714
0.478712
0.478711
0.478709
0.478708
0.478705
0.478701
0.478695
0.478689
0.621154
0.500543
0.482012
0.479208
0.47879
0.478728
0.478718
0.478715
0.478714
0.478714
0.478713
0.478712
0.478711
0.478709
0.478707
0.478704
0.478702
0.4787
0.621154
0.500543
0.482012
0.479207
0.478789
0.478728
0.478718
0.478714
0.478712
0.478712
0.47871
0.478709
0.478708
0.478707
0.478706
0.478704
0.478702
0.478702
0.621154
0.500544
0.482012
0.479207
0.478788
0.478725
0.478715
0.478711
0.478709
0.478707
0.478706
0.478705
0.478704
0.478703
0.478702
0.478701
0.4787
0.4787
0.621154
0.500545
0.482014
0.479206
0.478784
0.47872
0.478709
0.478705
0.478703
0.478701
0.478699
0.478698
0.478697
0.478697
0.478696
0.478695
0.478694
0.478694
0.621154
0.500547
0.482015
0.479204
0.47878
0.478714
0.478702
0.478698
0.478696
0.478694
0.478693
0.478692
0.478692
0.478691
0.478691
0.47869
0.478689
0.47869
0.621152
0.500551
0.482014
0.479195
0.478767
0.478701
0.478689
0.478685
0.478684
0.478683
0.478683
0.478682
0.478682
0.478683
0.478682
0.478682
0.478682
0.478683
0.621147
0.500559
0.482014
0.479187
0.478759
0.478694
0.478684
0.478681
0.478681
0.47868
0.47868
0.47868
0.478681
0.478681
0.478681
0.478681
0.478681
0.478682
0.621134
0.500551
0.481983
0.479149
0.478725
0.478665
0.478657
0.478657
0.478658
0.47866
0.478662
0.478664
0.478665
0.478667
0.478669
0.47867
0.478671
0.478672
0.621195
0.500594
0.48198
0.479154
0.478749
0.478696
0.478689
0.478687
0.478686
0.478685
0.478684
0.478682
0.478681
0.47868
0.47868
0.47868
0.478679
0.47868
0.621276
0.500532
0.481808
0.478971
0.478582
0.478548
0.478561
0.47858
0.478597
0.478611
0.478622
0.478631
0.478639
0.478645
0.478651
0.478655
0.478659
0.478661
0.621626
0.501078
0.482445
0.479563
0.479064
0.478923
0.47885
0.478804
0.478771
0.478747
0.47873
0.478716
0.478707
0.4787
0.478695
0.478691
0.47869
0.478684
0.617042
0.497852
0.480426
0.478232
0.478138
0.478261
0.478372
0.478454
0.478512
0.478553
0.478582
0.478604
0.47862
0.478632
0.478642
0.47865
0.478659
0.478657
0.625111
0.502056
0.482622
0.479575
0.479005
0.478839
0.47877
0.478733
0.478711
0.478697
0.478687
0.47868
0.478676
0.478673
0.478671
0.478671
0.478674
0.478662
0.221346
0.221324
0.221265
0.221181
0.221073
0.22094
0.220783
0.220601
0.220394
0.220164
0.219912
0.219638
0.219342
0.219025
0.218689
0.218334
0.217961
0.217571
0.217166
0.216746
0.216314
0.21587
0.215416
0.214953
0.214483
0.214007
0.213526
0.213043
0.212559
0.212075
0.211593
0.211114
0.21064
0.210173
0.209713
0.209263
0.208824
0.208398
0.207984
0.207586
0.207204
0.206839
0.206493
0.206167
0.205861
0.205577
0.205314
0.205075
0.20486
0.20467
0.204504
0.204364
0.20425
0.204162
0.204099
0.204063
0.204053
0.20407
0.204112
0.204179
0.204272
0.20439
0.204532
0.204698
0.204888
0.2051
0.205334
0.205589
0.205864
0.206159
0.206473
0.206805
0.207154
0.207519
0.207899
0.208293
0.208701
0.209121
0.209553
0.209995
0.210446
0.210906
0.211373
0.211847
0.212326
0.21281
0.213297
0.213787
0.214278
0.214769
0.21526
0.21575
0.216237
0.21672
0.2172
0.217674
0.218142
0.218604
0.219057
0.219503
0.219939
0.220366
0.220782
0.221188
0.221582
0.221964
0.222334
0.222691
0.223035
0.223364
0.22368
0.223981
0.224268
0.224538
0.224793
0.225031
0.225252
0.225457
0.225643
0.225811
0.225961
0.226091
0.226201
0.226292
0.226362
0.22641
0.226437
0.226442
0.226424
0.226382
0.226317
0.226227
0.226113
0.225972
0.225806
0.225613
0.225393
0.225144
0.224868
0.224562
0.224227
0.223861
0.223464
0.223036
0.222575
0.222082
0.221556
0.220995
0.220401
0.219771
0.219105
0.218403
0.217664
0.216888
0.216075
0.215222
0.214331
0.213401
0.21243
0.21142
0.210368
0.209276
0.208144
0.206962
0.205737
0.20447
0.203154
0.201795
0.200395
0.198951
0.197464
0.195935
0.194362
0.192748
0.191094
0.189404
0.187693
0.185957
0.184319
0.182426
0.222049
0.222019
0.221968
0.221891
0.221788
0.221659
0.221505
0.221326
0.221121
0.220891
0.220638
0.220361
0.220062
0.219743
0.219403
0.219045
0.218669
0.218276
0.217868
0.217446
0.217012
0.216565
0.216109
0.215644
0.215172
0.214695
0.214213
0.213729
0.213243
0.212758
0.212274
0.211795
0.21132
0.210851
0.210391
0.20994
0.209499
0.209071
0.208657
0.208257
0.207874
0.207508
0.20716
0.206832
0.206524
0.206238
0.205974
0.205734
0.205517
0.205324
0.205156
0.205014
0.204897
0.204806
0.204742
0.204703
0.20469
0.204704
0.204743
0.204808
0.204899
0.205014
0.205153
0.205316
0.205503
0.205712
0.205943
0.206196
0.206468
0.206761
0.207072
0.207402
0.207748
0.20811
0.208488
0.20888
0.209286
0.209704
0.210134
0.210574
0.211024
0.211482
0.211948
0.21242
0.212898
0.213381
0.213868
0.214357
0.214847
0.215339
0.21583
0.216319
0.216807
0.217291
0.21777
0.218245
0.218714
0.219176
0.219631
0.220077
0.220514
0.220942
0.22136
0.221767
0.222162
0.222546
0.222917
0.223276
0.223621
0.223952
0.22427
0.224572
0.22486
0.225132
0.225388
0.225628
0.225851
0.226057
0.226244
0.226414
0.226565
0.226696
0.226808
0.2269
0.226971
0.22702
0.227048
0.227054
0.227037
0.226996
0.226932
0.226843
0.226728
0.226589
0.226423
0.22623
0.22601
0.225762
0.225485
0.22518
0.224844
0.224478
0.224081
0.223652
0.223191
0.222698
0.222171
0.221609
0.221014
0.220383
0.219716
0.219013
0.218273
0.217495
0.21668
0.215826
0.214933
0.214001
0.213028
0.212015
0.21096
0.209865
0.20873
0.207548
0.206326
0.205065
0.203758
0.202407
0.201014
0.199577
0.198097
0.196573
0.195006
0.193396
0.191748
0.190063
0.188356
0.186626
0.184967
0.183172
0.223474
0.223428
0.223366
0.223282
0.223172
0.223037
0.222875
0.222687
0.222474
0.222237
0.221976
0.221693
0.221389
0.221064
0.220719
0.220356
0.219976
0.219579
0.219168
0.218743
0.218305
0.217857
0.217398
0.216932
0.216458
0.215979
0.215496
0.21501
0.214523
0.214037
0.213552
0.213071
0.212595
0.212126
0.211664
0.211211
0.210769
0.210339
0.209923
0.209521
0.209136
0.208767
0.208417
0.208086
0.207775
0.207486
0.207219
0.206975
0.206754
0.206558
0.206386
0.206239
0.206118
0.206023
0.205954
0.205911
0.205893
0.205902
0.205937
0.205997
0.206082
0.206192
0.206327
0.206485
0.206667
0.206872
0.207098
0.207346
0.207614
0.207902
0.20821
0.208535
0.208878
0.209237
0.209611
0.21
0.210403
0.210819
0.211246
0.211684
0.212133
0.21259
0.213055
0.213528
0.214006
0.214489
0.214977
0.215468
0.21596
0.216454
0.216948
0.217441
0.217932
0.21842
0.218904
0.219384
0.219858
0.220326
0.220786
0.221239
0.221682
0.222117
0.222541
0.222955
0.223358
0.223749
0.224127
0.224494
0.224846
0.225186
0.225511
0.225821
0.226117
0.226397
0.226661
0.226909
0.22714
0.227354
0.227549
0.227727
0.227885
0.228025
0.228144
0.228244
0.228322
0.228379
0.228414
0.228427
0.228417
0.228383
0.228325
0.228243
0.228135
0.228001
0.227841
0.227654
0.227439
0.227196
0.226924
0.226623
0.226292
0.22593
0.225537
0.225112
0.224654
0.224163
0.223639
0.22308
0.222487
0.221858
0.221193
0.220491
0.219752
0.218975
0.218161
0.217307
0.216414
0.215482
0.214508
0.213495
0.212441
0.211345
0.210208
0.209027
0.207805
0.206544
0.205238
0.203889
0.202496
0.20106
0.19958
0.198057
0.19649
0.19488
0.19323
0.191542
0.18983
0.188093
0.186405
0.184642
0.225594
0.225532
0.22546
0.225368
0.22525
0.225104
0.224931
0.224734
0.224511
0.224265
0.223996
0.223705
0.223393
0.22306
0.222709
0.22234
0.221954
0.221552
0.221136
0.220706
0.220264
0.219812
0.21935
0.21888
0.218404
0.217922
0.217436
0.216948
0.216458
0.21597
0.215483
0.214999
0.214521
0.214048
0.213584
0.213128
0.212683
0.21225
0.21183
0.211425
0.211035
0.210663
0.210308
0.209972
0.209657
0.209363
0.20909
0.20884
0.208614
0.208411
0.208233
0.20808
0.207952
0.20785
0.207774
0.207724
0.207699
0.207701
0.207728
0.20778
0.207858
0.207961
0.208088
0.208239
0.208414
0.208611
0.20883
0.209071
0.209333
0.209614
0.209915
0.210234
0.210571
0.210925
0.211294
0.211679
0.212077
0.212489
0.212913
0.213349
0.213795
0.21425
0.214714
0.215186
0.215664
0.216149
0.216638
0.21713
0.217626
0.218123
0.218621
0.219119
0.219615
0.220109
0.220601
0.221088
0.22157
0.222046
0.222515
0.222977
0.22343
0.223875
0.224309
0.224734
0.225147
0.225549
0.225939
0.226317
0.226682
0.227033
0.22737
0.227693
0.228
0.228293
0.228569
0.228829
0.229073
0.229299
0.229507
0.229697
0.229868
0.230019
0.230151
0.230262
0.230352
0.230421
0.230467
0.230491
0.230492
0.230469
0.230422
0.23035
0.230252
0.230128
0.229977
0.229799
0.229593
0.229359
0.229095
0.228801
0.228478
0.228123
0.227736
0.227317
0.226865
0.22638
0.22586
0.225306
0.224717
0.224092
0.22343
0.222731
0.221995
0.221221
0.220408
0.219556
0.218664
0.217733
0.216761
0.215748
0.214693
0.213597
0.21246
0.211279
0.210056
0.208793
0.207485
0.206135
0.204741
0.203303
0.201821
0.200296
0.198727
0.197114
0.19546
0.193767
0.192045
0.190294
0.188579
0.186811
0.228416
0.228343
0.228262
0.228162
0.228034
0.227878
0.227695
0.227487
0.227253
0.226997
0.226717
0.226416
0.226095
0.225753
0.225394
0.225016
0.224623
0.224214
0.223791
0.223355
0.222908
0.22245
0.221983
0.221509
0.221028
0.220542
0.220052
0.21956
0.219067
0.218574
0.218084
0.217596
0.217114
0.216638
0.216169
0.215709
0.21526
0.214822
0.214397
0.213987
0.213592
0.213213
0.212853
0.212511
0.212189
0.211887
0.211607
0.21135
0.211115
0.210905
0.210718
0.210557
0.21042
0.210309
0.210223
0.210163
0.210129
0.210121
0.210138
0.210181
0.210249
0.210342
0.210459
0.2106
0.210765
0.210952
0.211162
0.211394
0.211646
0.211919
0.212211
0.212522
0.212851
0.213197
0.21356
0.213937
0.21433
0.214736
0.215155
0.215586
0.216029
0.216481
0.216943
0.217414
0.217891
0.218376
0.218866
0.219361
0.219859
0.22036
0.220862
0.221366
0.221868
0.22237
0.222869
0.223364
0.223856
0.224342
0.224821
0.225294
0.225759
0.226216
0.226663
0.2271
0.227527
0.227943
0.228346
0.228738
0.229117
0.229483
0.229835
0.230172
0.230495
0.230803
0.231094
0.23137
0.231628
0.23187
0.232093
0.232298
0.232484
0.232651
0.232798
0.232924
0.233029
0.233112
0.233173
0.233211
0.233225
0.233216
0.233182
0.233123
0.233037
0.232925
0.232787
0.23262
0.232425
0.232201
0.231947
0.231664
0.231349
0.231003
0.230624
0.230213
0.229769
0.22929
0.228777
0.228229
0.227645
0.227025
0.226367
0.225672
0.22494
0.224168
0.223358
0.222508
0.221618
0.220688
0.219717
0.218704
0.21765
0.216553
0.215415
0.214234
0.21301
0.211744
0.210435
0.209083
0.207687
0.206247
0.204763
0.203235
0.201663
0.200047
0.198388
0.196688
0.194956
0.19319
0.19145
0.189658
0.231956
0.231876
0.231787
0.231677
0.231539
0.231373
0.231179
0.230959
0.230714
0.230446
0.230155
0.229843
0.22951
0.229159
0.228789
0.228402
0.227999
0.227582
0.227151
0.226707
0.226253
0.225788
0.225315
0.224834
0.224347
0.223855
0.22336
0.222862
0.222364
0.221866
0.221371
0.220878
0.22039
0.219909
0.219435
0.218969
0.218514
0.21807
0.217638
0.217221
0.216819
0.216433
0.216064
0.215714
0.215384
0.215074
0.214785
0.214518
0.214273
0.214052
0.213855
0.213683
0.213535
0.213413
0.213316
0.213244
0.213198
0.213178
0.213183
0.213213
0.213269
0.213349
0.213454
0.213583
0.213735
0.213911
0.214108
0.214328
0.214569
0.214831
0.215112
0.215412
0.215731
0.216067
0.21642
0.216789
0.217173
0.217572
0.217984
0.218409
0.218846
0.219294
0.219752
0.220219
0.220695
0.221179
0.221669
0.222164
0.222665
0.223169
0.223676
0.224184
0.224693
0.225201
0.225709
0.226213
0.226714
0.227211
0.227702
0.228187
0.228664
0.229134
0.229594
0.230046
0.230487
0.230917
0.231337
0.231744
0.232139
0.23252
0.232889
0.233243
0.233583
0.233907
0.234216
0.234509
0.234785
0.235043
0.235284
0.235507
0.23571
0.235894
0.236058
0.236201
0.236322
0.236422
0.2365
0.236554
0.236584
0.23659
0.236571
0.236527
0.236456
0.236358
0.236233
0.23608
0.235897
0.235686
0.235444
0.235171
0.234867
0.234531
0.234162
0.23376
0.233324
0.232854
0.232348
0.231807
0.231229
0.230615
0.229962
0.229272
0.228544
0.227776
0.226968
0.226121
0.225233
0.224304
0.223334
0.222322
0.221268
0.220171
0.219033
0.21785
0.216626
0.215358
0.214047
0.212693
0.211295
0.209853
0.208367
0.206836
0.205261
0.203641
0.201977
0.200271
0.198529
0.196749
0.194985
0.19316
0.236236
0.23615
0.236053
0.235934
0.235787
0.235609
0.235404
0.235172
0.234915
0.234634
0.234331
0.234006
0.233661
0.233298
0.232916
0.232518
0.232105
0.231677
0.231236
0.230783
0.23032
0.229847
0.229365
0.228876
0.228382
0.227883
0.22738
0.226876
0.226371
0.225866
0.225363
0.224864
0.224369
0.223881
0.223399
0.222926
0.222463
0.222011
0.221572
0.221146
0.220735
0.22034
0.219962
0.219602
0.219261
0.21894
0.21864
0.218361
0.218105
0.217872
0.217663
0.217477
0.217316
0.21718
0.217069
0.216984
0.216923
0.216889
0.216879
0.216895
0.216935
0.217001
0.217091
0.217204
0.217342
0.217503
0.217686
0.217891
0.218118
0.218365
0.218632
0.218919
0.219225
0.219549
0.21989
0.220247
0.220621
0.221009
0.221412
0.221828
0.222257
0.222698
0.22315
0.223612
0.224084
0.224565
0.225053
0.225548
0.226049
0.226555
0.227064
0.227576
0.228091
0.228605
0.22912
0.229632
0.230143
0.230649
0.231151
0.231648
0.232137
0.23262
0.233094
0.23356
0.234016
0.234461
0.234896
0.235319
0.235731
0.236129
0.236515
0.236886
0.237244
0.237586
0.237913
0.238224
0.238518
0.238795
0.239055
0.239296
0.239517
0.23972
0.239902
0.240063
0.240203
0.240321
0.240416
0.240487
0.240535
0.240558
0.240555
0.240527
0.240472
0.240389
0.240279
0.24014
0.239972
0.239774
0.239545
0.239285
0.238993
0.238668
0.23831
0.237918
0.237492
0.23703
0.236533
0.235999
0.235429
0.234821
0.234174
0.23349
0.232766
0.232002
0.231198
0.230354
0.229468
0.228541
0.227572
0.226561
0.225508
0.224411
0.223272
0.22209
0.220864
0.219595
0.218283
0.216926
0.215527
0.214083
0.212594
0.211061
0.209483
0.20786
0.206192
0.204479
0.202728
0.200935
0.199151
0.197292
0.241287
0.241196
0.24109
0.240962
0.240803
0.240614
0.240396
0.240151
0.239881
0.239586
0.239269
0.238931
0.238573
0.238196
0.237802
0.237391
0.236965
0.236525
0.236073
0.235609
0.235134
0.23465
0.234159
0.23366
0.233156
0.232648
0.232136
0.231623
0.231109
0.230595
0.230084
0.229576
0.229072
0.228575
0.228084
0.227602
0.22713
0.226668
0.226219
0.225782
0.225361
0.224955
0.224565
0.224193
0.22384
0.223507
0.223193
0.222902
0.222632
0.222384
0.22216
0.22196
0.221783
0.221631
0.221504
0.221402
0.221325
0.221274
0.221247
0.221245
0.221268
0.221316
0.221389
0.221485
0.221604
0.221747
0.221913
0.222101
0.22231
0.22254
0.222791
0.223061
0.223351
0.223659
0.223985
0.224328
0.224687
0.225062
0.225452
0.225857
0.226275
0.226706
0.227149
0.227603
0.228068
0.228543
0.229026
0.229518
0.230017
0.230521
0.231031
0.231545
0.232062
0.232581
0.233101
0.23362
0.234137
0.234652
0.235163
0.23567
0.236171
0.236665
0.237152
0.23763
0.2381
0.238559
0.239009
0.239448
0.239875
0.24029
0.240692
0.24108
0.241455
0.241815
0.24216
0.242489
0.242801
0.243097
0.243375
0.243634
0.243875
0.244096
0.244297
0.244476
0.244635
0.244771
0.244884
0.244973
0.245039
0.245079
0.245094
0.245082
0.245044
0.244978
0.244883
0.244759
0.244606
0.244422
0.244207
0.24396
0.243681
0.243368
0.243022
0.242641
0.242225
0.241773
0.241285
0.24076
0.240197
0.239596
0.238957
0.238278
0.237559
0.2368
0.236
0.235159
0.234277
0.233352
0.232386
0.231376
0.230323
0.229228
0.228089
0.226906
0.22568
0.22441
0.223097
0.22174
0.220338
0.218893
0.217403
0.215868
0.214288
0.212662
0.21099
0.209272
0.207514
0.205709
0.203907
0.202018
0.247142
0.247044
0.246929
0.246789
0.246619
0.246417
0.246185
0.245926
0.245642
0.245333
0.245001
0.244648
0.244274
0.243882
0.243473
0.243048
0.242607
0.242153
0.241687
0.24121
0.240722
0.240226
0.239721
0.239211
0.238695
0.238175
0.237652
0.237128
0.236603
0.236078
0.235556
0.235037
0.234523
0.234015
0.233513
0.23302
0.232536
0.232063
0.231601
0.231153
0.230719
0.2303
0.229897
0.229511
0.229144
0.228796
0.228468
0.22816
0.227875
0.227611
0.22737
0.227152
0.226958
0.226788
0.226643
0.226522
0.226426
0.226355
0.226308
0.226287
0.226289
0.226317
0.226368
0.226444
0.226543
0.226665
0.22681
0.226977
0.227165
0.227375
0.227606
0.227856
0.228126
0.228415
0.228722
0.229046
0.229388
0.229746
0.230119
0.230508
0.230911
0.231328
0.231758
0.232201
0.232655
0.23312
0.233595
0.23408
0.234573
0.235073
0.23558
0.236092
0.236608
0.237128
0.237649
0.238172
0.238693
0.239214
0.239731
0.240245
0.240754
0.241257
0.241753
0.242242
0.242723
0.243195
0.243657
0.244109
0.24455
0.244979
0.245396
0.2458
0.246191
0.246567
0.246928
0.247274
0.247604
0.247917
0.248212
0.248489
0.248748
0.248986
0.249205
0.249403
0.249579
0.249733
0.249864
0.249971
0.250054
0.250112
0.250144
0.250149
0.250127
0.250077
0.249998
0.24989
0.249752
0.249582
0.249381
0.249148
0.248882
0.248582
0.248247
0.247878
0.247473
0.247031
0.246553
0.246037
0.245483
0.24489
0.244257
0.243585
0.242872
0.242119
0.241324
0.240487
0.239608
0.238687
0.237723
0.236716
0.235665
0.23457
0.233432
0.23225
0.231025
0.229755
0.228441
0.227083
0.225682
0.224236
0.222745
0.221209
0.219628
0.218001
0.216327
0.214605
0.212841
0.211028
0.209212
0.207297
0.253836
0.253731
0.253606
0.253453
0.253269
0.253052
0.252806
0.252532
0.252231
0.251906
0.251557
0.251187
0.250796
0.250387
0.249961
0.249518
0.249061
0.248591
0.248108
0.247615
0.247111
0.2466
0.246081
0.245555
0.245025
0.244491
0.243954
0.243416
0.242878
0.242341
0.241805
0.241274
0.240746
0.240225
0.23971
0.239203
0.238706
0.238219
0.237744
0.237281
0.236832
0.236399
0.235981
0.235579
0.235196
0.234831
0.234486
0.234161
0.233857
0.233575
0.233315
0.233078
0.232864
0.232674
0.232507
0.232365
0.232247
0.232154
0.232085
0.23204
0.23202
0.232024
0.232052
0.232103
0.232178
0.232276
0.232396
0.232539
0.232703
0.232888
0.233095
0.233321
0.233567
0.233833
0.234116
0.234418
0.234738
0.235074
0.235426
0.235795
0.236179
0.236577
0.236989
0.237415
0.237854
0.238304
0.238766
0.239239
0.239721
0.240212
0.240711
0.241216
0.241728
0.242243
0.242762
0.243283
0.243805
0.244326
0.244845
0.245362
0.245875
0.246383
0.246885
0.247381
0.247869
0.24835
0.248821
0.249283
0.249734
0.250175
0.250603
0.25102
0.251423
0.251813
0.252188
0.252548
0.252892
0.25322
0.253531
0.253824
0.254098
0.254353
0.254588
0.254802
0.254995
0.255165
0.255313
0.255437
0.255536
0.25561
0.255658
0.255679
0.255673
0.255638
0.255575
0.255482
0.255358
0.255203
0.255016
0.254796
0.254543
0.254256
0.253934
0.253576
0.253182
0.252751
0.252283
0.251776
0.251231
0.250646
0.250021
0.249356
0.248651
0.247903
0.247114
0.246282
0.245408
0.244491
0.24353
0.242526
0.241478
0.240386
0.23925
0.238069
0.236845
0.235576
0.234263
0.232906
0.231505
0.230059
0.228569
0.227034
0.225453
0.223826
0.222151
0.220429
0.218662
0.216843
0.215017
0.213082
0.26141
0.261296
0.261159
0.260992
0.260792
0.26056
0.260296
0.260004
0.259685
0.259341
0.258973
0.258583
0.258172
0.257743
0.257297
0.256834
0.256358
0.255868
0.255366
0.254853
0.254331
0.253801
0.253264
0.252721
0.252174
0.251623
0.25107
0.250515
0.249961
0.249408
0.248857
0.24831
0.247767
0.24723
0.2467
0.246177
0.245664
0.245162
0.24467
0.244192
0.243726
0.243275
0.24284
0.242421
0.242019
0.241636
0.241272
0.240927
0.240603
0.2403
0.240019
0.23976
0.239524
0.23931
0.23912
0.238954
0.238812
0.238693
0.238598
0.238528
0.238481
0.238458
0.238458
0.238482
0.238529
0.238599
0.238691
0.238805
0.238941
0.239097
0.239275
0.239473
0.23969
0.239927
0.240183
0.240457
0.240749
0.241059
0.241385
0.241728
0.242086
0.242461
0.24285
0.243253
0.24367
0.244101
0.244543
0.244998
0.245464
0.24594
0.246424
0.246918
0.247418
0.247923
0.248434
0.248947
0.249463
0.249979
0.250495
0.251009
0.251521
0.252028
0.252531
0.253028
0.253519
0.254003
0.254478
0.254945
0.255403
0.25585
0.256286
0.256711
0.257123
0.257522
0.257907
0.258278
0.258633
0.258973
0.259296
0.259601
0.259888
0.260157
0.260405
0.260633
0.260839
0.261024
0.261186
0.261324
0.261437
0.261526
0.261588
0.261624
0.261632
0.261612
0.261563
0.261483
0.261373
0.261232
0.261058
0.260851
0.260611
0.260336
0.260025
0.259679
0.259296
0.258876
0.258418
0.257921
0.257385
0.256809
0.256193
0.255536
0.254837
0.254096
0.253314
0.252488
0.251619
0.250707
0.249751
0.248751
0.247706
0.246618
0.245485
0.244307
0.243085
0.241819
0.240508
0.239153
0.237754
0.23631
0.234822
0.233289
0.23171
0.230085
0.228412
0.226691
0.224925
0.223103
0.221273
0.219324
0.269908
0.269784
0.269632
0.269449
0.269231
0.26898
0.268697
0.268384
0.268043
0.267676
0.267285
0.266872
0.266438
0.265985
0.265515
0.265029
0.264529
0.264015
0.26349
0.262955
0.262411
0.261859
0.2613
0.260736
0.260168
0.259597
0.259024
0.258451
0.257877
0.257305
0.256736
0.25617
0.255609
0.255054
0.254506
0.253966
0.253435
0.252914
0.252405
0.251907
0.251423
0.250953
0.250498
0.250059
0.249637
0.249233
0.248847
0.248481
0.248134
0.247808
0.247503
0.24722
0.246958
0.246719
0.246503
0.24631
0.24614
0.245993
0.245869
0.245769
0.245692
0.245638
0.245607
0.2456
0.245614
0.245652
0.245711
0.245792
0.245894
0.246017
0.246161
0.246325
0.246509
0.246712
0.246934
0.247175
0.247434
0.24771
0.248004
0.248315
0.248642
0.248986
0.249345
0.249719
0.250108
0.250512
0.250929
0.251358
0.251801
0.252254
0.252718
0.253192
0.253673
0.254162
0.254657
0.255156
0.255658
0.256163
0.256668
0.257172
0.257675
0.258175
0.258672
0.259164
0.259651
0.260132
0.260606
0.261072
0.261529
0.261978
0.262416
0.262843
0.263259
0.263662
0.264053
0.264429
0.264791
0.265138
0.265468
0.265782
0.266078
0.266355
0.266613
0.266851
0.267068
0.267264
0.267437
0.267586
0.267712
0.267812
0.267886
0.267934
0.267954
0.267946
0.267909
0.267842
0.267744
0.267615
0.267453
0.267258
0.267029
0.266766
0.266467
0.266131
0.265759
0.265349
0.264901
0.264414
0.263888
0.263321
0.262713
0.262064
0.261374
0.260641
0.259865
0.259046
0.258183
0.257277
0.256327
0.255332
0.254293
0.253209
0.25208
0.250907
0.249689
0.248427
0.24712
0.245769
0.244373
0.242933
0.241449
0.23992
0.238345
0.236724
0.235055
0.233338
0.231575
0.229756
0.227925
0.225969
0.279378
0.279243
0.279074
0.278871
0.278632
0.278358
0.278051
0.277713
0.277346
0.276952
0.276534
0.276092
0.27563
0.275148
0.274649
0.274135
0.273606
0.273064
0.272511
0.271949
0.271378
0.270799
0.270215
0.269626
0.269034
0.268439
0.267843
0.267246
0.26665
0.266057
0.265466
0.264879
0.264297
0.263721
0.263152
0.262592
0.26204
0.261499
0.260969
0.26045
0.259945
0.259453
0.258977
0.258516
0.258071
0.257644
0.257234
0.256843
0.256471
0.256119
0.255788
0.255477
0.255188
0.25492
0.254674
0.25445
0.254249
0.25407
0.253914
0.25378
0.253669
0.25358
0.253514
0.25347
0.253448
0.253447
0.253469
0.253511
0.253575
0.253659
0.253763
0.253888
0.254032
0.254195
0.254377
0.254578
0.254797
0.255034
0.255288
0.25556
0.255849
0.256155
0.256477
0.256814
0.257168
0.257536
0.25792
0.258317
0.258727
0.25915
0.259585
0.260031
0.260486
0.26095
0.26142
0.261896
0.262378
0.262861
0.263347
0.263834
0.26432
0.264805
0.265288
0.265767
0.266243
0.266713
0.267178
0.267636
0.268087
0.268529
0.268962
0.269386
0.269799
0.270201
0.27059
0.270967
0.271329
0.271677
0.27201
0.272327
0.272627
0.272908
0.273171
0.273415
0.273638
0.27384
0.27402
0.274178
0.274311
0.27442
0.274503
0.27456
0.274589
0.274591
0.274563
0.274506
0.274419
0.274299
0.274148
0.273963
0.273744
0.273491
0.273202
0.272877
0.272514
0.272115
0.271676
0.271199
0.270681
0.270124
0.269525
0.268885
0.268202
0.267478
0.26671
0.265898
0.265043
0.264144
0.2632
0.262212
0.261179
0.260101
0.258979
0.257811
0.256599
0.255342
0.254041
0.252695
0.251305
0.249871
0.248393
0.246869
0.245301
0.243687
0.242025
0.240315
0.23856
0.236747
0.234921
0.232963
0.289875
0.289725
0.289537
0.28931
0.289045
0.288743
0.288406
0.288037
0.287637
0.28721
0.286757
0.286281
0.285783
0.285267
0.284732
0.284182
0.283619
0.283043
0.282457
0.281861
0.281258
0.280649
0.280034
0.279415
0.278794
0.278171
0.277547
0.276924
0.276302
0.275683
0.275067
0.274456
0.27385
0.27325
0.272658
0.272074
0.271499
0.270935
0.270381
0.269839
0.26931
0.268795
0.268294
0.267808
0.267338
0.266884
0.266448
0.26603
0.26563
0.26525
0.264888
0.264547
0.264226
0.263926
0.263647
0.263389
0.263152
0.262937
0.262744
0.262572
0.262422
0.262294
0.262187
0.262101
0.262037
0.261994
0.261971
0.26197
0.261988
0.262027
0.262086
0.262164
0.262261
0.262378
0.262513
0.262667
0.262839
0.263029
0.263236
0.263462
0.263704
0.263964
0.26424
0.264533
0.264843
0.265168
0.265509
0.265865
0.266235
0.266618
0.267015
0.267424
0.267843
0.268271
0.268709
0.269153
0.269603
0.270057
0.270514
0.270974
0.271435
0.271896
0.272356
0.272814
0.273269
0.273721
0.274168
0.27461
0.275046
0.275474
0.275895
0.276307
0.27671
0.277103
0.277484
0.277854
0.278211
0.278554
0.278883
0.279196
0.279494
0.279774
0.280037
0.280281
0.280505
0.280709
0.280892
0.281052
0.281189
0.281302
0.28139
0.281452
0.281488
0.281495
0.281475
0.281424
0.281344
0.281232
0.281089
0.280912
0.280702
0.280457
0.280177
0.27986
0.279507
0.279116
0.278687
0.278218
0.27771
0.277161
0.276571
0.27594
0.275266
0.27455
0.273791
0.272988
0.272141
0.27125
0.270314
0.269334
0.268308
0.267238
0.266123
0.264963
0.263758
0.262509
0.261215
0.259877
0.258495
0.257068
0.255598
0.254083
0.252523
0.250918
0.249267
0.247567
0.245822
0.24402
0.242203
0.24025
0.301457
0.301289
0.301076
0.30082
0.300523
0.300185
0.299811
0.299402
0.298961
0.298491
0.297995
0.297475
0.296933
0.296372
0.295794
0.295201
0.294595
0.293978
0.293351
0.292716
0.292074
0.291428
0.290777
0.290123
0.289468
0.288812
0.288156
0.287502
0.28685
0.286202
0.285557
0.284918
0.284285
0.283658
0.283039
0.282429
0.281828
0.281237
0.280657
0.280089
0.279533
0.278991
0.278462
0.277949
0.27745
0.276968
0.276502
0.276053
0.275622
0.275209
0.274814
0.274438
0.274082
0.273745
0.273429
0.273132
0.272855
0.272599
0.272364
0.272149
0.271955
0.271781
0.271627
0.271495
0.271382
0.27129
0.271217
0.271165
0.271132
0.271118
0.271124
0.271149
0.271192
0.271254
0.271335
0.271434
0.271551
0.271686
0.271838
0.272009
0.272196
0.272402
0.272624
0.272863
0.27312
0.273392
0.273681
0.273986
0.274306
0.274641
0.27499
0.275351
0.275724
0.276108
0.276502
0.276903
0.277312
0.277726
0.278145
0.278568
0.278993
0.27942
0.279848
0.280275
0.280701
0.281125
0.281545
0.281962
0.282374
0.282781
0.283181
0.283574
0.283958
0.284334
0.2847
0.285055
0.285398
0.285729
0.286047
0.286351
0.28664
0.286913
0.287169
0.287407
0.287626
0.287826
0.288006
0.288164
0.2883
0.288412
0.288501
0.288564
0.288601
0.288611
0.288594
0.288547
0.288471
0.288364
0.288225
0.288055
0.28785
0.287612
0.287339
0.28703
0.286684
0.286301
0.285879
0.285419
0.284919
0.284379
0.283798
0.283175
0.28251
0.281803
0.281052
0.280258
0.27942
0.278538
0.277612
0.27664
0.275624
0.274563
0.273457
0.272306
0.271111
0.269871
0.268586
0.267258
0.265885
0.264469
0.263009
0.261505
0.259957
0.258363
0.256725
0.255039
0.253308
0.25152
0.249717
0.247776
0.314189
0.313999
0.313756
0.313463
0.313124
0.312741
0.312317
0.311856
0.311361
0.310836
0.310284
0.309707
0.309109
0.308493
0.30786
0.307214
0.306556
0.305888
0.305212
0.30453
0.303842
0.303152
0.302458
0.301764
0.301069
0.300375
0.299682
0.298992
0.298306
0.297624
0.296947
0.296276
0.295611
0.294954
0.294305
0.293664
0.293034
0.292413