/*--------------------------------*- C++ -*----------------------------------*\
| =========                 |                                                 |
| \\      /  F ield         | OpenFOAM: The Open Source CFD Toolbox           |
|  \\    /   O peration     | Version:  4.1                                   |
|   \\  /    A nd           | Web:      www.OpenFOAM.org                      |
|    \\/     M anipulation  |                                                 |
\*---------------------------------------------------------------------------*/
FoamFile
{
    version     2.0;
    format      ascii;
    class       volScalarField;
    location    "0.045";
    object      T;
}
// * * * * * * * * * * * * * * * * * * * * * * * * * * * * * * * * * * * * * //

dimensions      [0 0 0 1 0 0 0];

internalField   nonuniform List<scalar> 
12225
(
1.11552
1.23317
1.29917
1.34126
1.36974
1.38851
1.40119
1.41004
1.41642
1.42116
1.42479
1.42763
1.4299
1.43177
1.4333
1.43469
1.43581
1.43518
0.860947
0.707839
0.632408
0.594821
0.576427
0.569644
0.569414
0.572758
0.577971
0.584077
0.590513
0.596954
0.603214
0.609181
0.61481
0.619994
0.624958
0.628865
1.03458
1.08006
1.10414
1.11423
1.11556
1.11189
1.10559
1.09802
1.08996
1.08185
1.07398
1.06647
1.05942
1.05284
1.04677
1.04114
1.0362
1.0315
1.00165
0.998855
0.992981
0.988432
0.986044
0.98539
0.98593
0.9872
0.988859
0.990683
0.992533
0.994323
0.995998
0.997539
0.998939
1.00018
1.0013
1.00234
1.00023
1.00039
1.00026
1.00043
1.00067
1.0008
1.00084
1.0008
1.00072
1.00062
1.00051
1.00042
1.00033
1.00027
1.00023
1.00019
1.00021
1.00021
0.999584
0.999244
0.998899
0.998714
0.99862
0.998535
0.998453
0.99839
0.998342
0.998302
0.998271
0.998244
0.99822
0.998204
0.998189
0.998174
0.998175
0.998153
0.999929
1.00011
1.00016
1.00019
1.00023
1.00025
1.00026
1.00026
1.00026
1.00026
1.00026
1.00025
1.00024
1.00023
1.00022
1.00021
1.00021
1.00019
0.999971
1.00007
1.00006
1.00002
1.00001
1.00001
1.00001
1
1
1
1
1.00001
1.00002
1.00002
1.00002
1.00003
1.00003
1.00003
0.999979
1.00004
1.00003
1.00002
1.00002
1.00002
1.00002
1.00002
1.00002
1.00003
1.00003
1.00003
1.00003
1.00003
1.00003
1.00003
1.00003
1.00003
0.999978
1.00002
1.00001
0.999998
0.999998
1
0.999999
0.999997
0.999996
0.999997
0.999995
0.999996
1
0.999999
0.999995
1
0.999995
0.999997
0.999985
1.00001
1.00001
1
1
0.999997
0.999997
0.999997
1
1
1
0.999998
0.999997
1
1
1
0.999997
1
0.999988
1.00001
1.00001
0.999999
0.999997
0.999999
0.999998
0.999999
0.999998
0.999996
0.999996
0.999997
0.999999
0.999999
1
1
0.999996
1
0.999989
1.00001
1.00001
1
0.999999
0.999999
1
1
0.999999
0.999998
1
0.999998
0.999999
1
0.999999
1
0.999993
0.999997
0.999991
1
1.00001
1.00001
1
1
0.999997
0.999998
0.999999
0.999998
0.999996
0.999998
0.999997
0.999997
0.999997
0.999997
0.999994
1
0.999993
1
1.00001
1.00001
1
1
0.999998
0.999999
0.999999
0.999999
1
0.999999
0.999999
1
0.999995
0.999998
0.999992
0.999998
0.999994
1
1.00001
1
1
1
1
0.999999
0.999999
0.999997
0.999997
1
1
1
0.999999
0.999998
0.999993
0.999999
0.999993
1
1
1
1
1
1
1
0.999999
1
1
0.999999
0.999998
0.999999
1
1
0.999997
0.999999
0.999995
1
1
1.00001
1.00001
1.00001
1
1
1
1
1
1
1.00001
1.00001
1
1
0.999997
1
0.999995
1
1
1
1
1
1.00001
1
0.999999
1
1
1
0.999997
0.999995
0.999999
0.999997
0.999991
0.999995
0.999992
1
1
1
1
1
1.00001
1.00001
1.00001
1
1.00001
1.00001
1.00001
1.00001
1.00001
1.00001
1.00001
1.00002
0.999991
0.999999
1.00001
1
0.999996
0.999991
0.999991
0.999988
0.999986
0.999985
0.999981
0.999979
0.999975
0.999972
0.999972
0.999972
0.999964
0.999966
0.999988
1
1.00001
1.00001
1.00002
1.00002
1.00003
1.00004
1.00004
1.00005
1.00006
1.00006
1.00007
1.00007
1.00008
1.00008
1.00008
1.00009
0.999982
1
1
0.999974
0.999943
0.999921
0.9999
0.999878
0.99986
0.999842
0.999828
0.999815
0.999802
0.999795
0.999786
0.999779
0.99977
0.999767
0.999965
1.00007
1.00018
1.00024
1.0003
1.00037
1.00043
1.00049
1.00054
1.00058
1.00062
1.00065
1.00067
1.00069
1.00071
1.00072
1.00073
1.00074
0.999753
0.999568
0.999366
0.999131
0.998913
0.998704
0.998509
0.998342
0.998201
0.998088
0.998002
0.997936
0.997889
0.997856
0.997838
0.997829
0.997822
0.997814
0.999992
1.00043
1.00095
1.00167
1.00247
1.00316
1.00368
1.00405
1.00429
1.00442
1.00447
1.00446
1.0044
1.00432
1.00421
1.00409
1.00396
1.00386
0.999945
0.996247
0.990161
0.98452
0.980273
0.977358
0.975527
0.97452
0.974115
0.974128
0.974432
0.974931
0.975556
0.976259
0.977006
0.977763
0.978549
0.979195
1.0214
1.05634
1.0798
1.09471
1.10362
1.10848
1.11069
1.11118
1.11056
1.10922
1.10743
1.10537
1.10317
1.1009
1.09862
1.09638
1.09417
1.09224
0.922802
0.82784
0.774466
0.743959
0.725618
0.714657
0.708441
0.705217
0.70388
0.70374
0.704359
0.705454
0.70684
0.708395
0.710039
0.711701
0.713398
0.714943
1.06291
1.12901
1.16726
1.19166
1.20826
1.21975
1.22781
1.23361
1.2379
1.24113
1.24365
1.24564
1.24725
1.24858
1.24971
1.25063
1.25155
1.25214
-4.00839e-21
-1.16379e-21
-6.16628e-22
-5.49577e-22
7.49688e-24
3.45068e-22
7.36077e-22
1.11433e-21
1.34718e-21
1.41182e-21
1.34493e-21
1.19125e-21
9.96572e-22
7.97058e-22
6.15433e-22
4.62024e-22
3.38445e-22
2.41634e-22
1.66938e-22
1.09864e-22
6.67288e-23
3.46806e-23
1.14897e-23
-4.65261e-24
-1.52618e-23
-2.16205e-23
-2.48053e-23
-2.57128e-23
-2.51181e-23
-2.37223e-23
-2.18841e-23
-1.83882e-23
-8.42369e-24
1.38814e-23
3.12393e-23
-6.6381e-23
-5.69863e-22
-1.81839e-21
-3.15882e-21
9.57301e-23
2.18909e-20
8.78613e-20
2.16403e-19
3.36163e-19
7.46585e-20
-1.62972e-18
-6.9936e-18
-1.94167e-17
-4.17114e-17
-6.98488e-17
-7.8033e-17
9.79935e-18
3.64873e-16
1.3096e-15
3.36137e-15
7.20875e-15
1.35178e-14
2.24085e-14
3.23889e-14
3.85109e-14
2.95664e-14
-1.56772e-14
-1.32829e-13
-3.75831e-13
-8.18672e-13
-1.55191e-12
-2.66991e-12
-4.24353e-12
-6.27266e-12
-8.61304e-12
-1.08738e-11
-1.2286e-11
-1.15479e-11
-6.66225e-12
5.20734e-12
2.78234e-11
6.58489e-11
1.24644e-10
2.09802e-10
3.26352e-10
4.77536e-10
6.63098e-10
8.77064e-10
1.105e-09
1.32082e-09
1.48333e-09
1.53273e-09
1.38741e-09
9.41515e-10
6.40116e-11
-1.40031e-09
-3.62681e-09
-6.80318e-09
-1.11168e-08
-1.67365e-08
-2.37871e-08
-3.23167e-08
-4.22552e-08
-5.33628e-08
-6.51689e-08
-7.68947e-08
-8.73381e-08
-9.46595e-08
-9.69775e-08
-9.20367e-08
-7.73501e-08
-5.02821e-08
-8.17971e-09
5.14739e-08
1.30887e-07
2.31777e-07
3.55187e-07
5.01321e-07
6.69398e-07
8.57551e-07
1.06277e-06
1.28091e-06
1.50675e-06
1.73411e-06
1.95608e-06
2.16523e-06
2.35389e-06
2.51449e-06
2.63988e-06
2.72365e-06
2.76045e-06
2.74625e-06
2.67853e-06
2.55645e-06
2.38092e-06
2.15455e-06
1.88157e-06
1.56772e-06
1.22004e-06
8.46604e-07
4.56255e-07
5.81924e-08
-3.38379e-07
-7.24518e-07
-1.09176e-06
-1.43229e-06
-1.7392e-06
-2.0068e-06
-2.23063e-06
-2.40731e-06
-2.53445e-06
-2.61135e-06
-2.63896e-06
-2.61864e-06
-2.55204e-06
-2.44314e-06
-2.29793e-06
-2.11921e-06
-1.91186e-06
-1.68603e-06
-1.44522e-06
-1.19456e-06
-9.43408e-07
-6.94826e-07
-4.5646e-07
-2.3306e-07
-2.43914e-08
1.6218e-07
3.1917e-07
4.51932e-07
5.52903e-07
6.186e-07
6.54137e-07
6.64273e-07
6.53571e-07
6.26282e-07
5.86184e-07
5.36514e-07
4.79737e-07
4.17754e-07
3.50773e-07
2.79721e-07
1.99419e-07
1.16958e-07
1.44799e-08
4.41144e-20
-1.23993e-20
4.29355e-21
-4.36221e-21
-1.8025e-20
-3.40103e-20
-4.69519e-20
-5.4167e-20
-5.5798e-20
-5.31702e-20
-4.77916e-20
-4.10296e-20
-3.39686e-20
-2.73294e-20
-2.14976e-20
-1.66066e-20
-1.26293e-20
-9.45608e-21
-6.95086e-21
-4.98387e-21
-3.44627e-21
-2.25241e-21
-1.33605e-21
-6.45228e-22
-1.37771e-22
2.21578e-22
4.62831e-22
6.11579e-22
6.89508e-22
7.15189e-22
7.05584e-22
6.76831e-22
6.36592e-22
5.51684e-22
2.86893e-22
-3.90618e-22
-1.37552e-21
-6.20545e-22
9.1302e-21
4.28628e-20
1.1362e-19
1.81788e-19
1.68193e-20
-1.0566e-18
-4.41247e-18
-1.18418e-17
-2.33337e-17
-3.01901e-17
5.54007e-19
1.54118e-16
6.06873e-16
1.65913e-15
3.71223e-15
7.08472e-15
1.14851e-14
1.48745e-14
1.14018e-14
-1.18409e-14
-7.92081e-14
-2.31325e-13
-5.28441e-13
-1.04855e-12
-1.87414e-12
-3.05852e-12
-4.56056e-12
-6.13522e-12
-7.16956e-12
-6.46049e-12
-1.94416e-12
9.59021e-12
3.27378e-11
7.35609e-11
1.39365e-10
2.37971e-10
3.76238e-10
5.57606e-10
7.78405e-10
1.02282e-09
1.25646e-09
1.41887e-09
1.4154e-09
1.10953e-09
3.17065e-10
-1.19605e-09
-3.70962e-09
-7.53632e-09
-1.2997e-08
-2.03812e-08
-2.98907e-08
-4.15646e-08
-5.51844e-08
-7.01627e-08
-8.54169e-08
-9.92355e-08
-1.09146e-07
-1.11796e-07
-1.02865e-07
-7.70241e-08
-2.79731e-08
5.1399e-08
1.68625e-07
3.30672e-07
5.42474e-07
8.07561e-07
1.12663e-06
1.4968e-06
1.91084e-06
2.35655e-06
2.81631e-06
3.26691e-06
3.67973e-06
4.02115e-06
4.2535e-06
4.33622e-06
4.22736e-06
3.88544e-06
3.27138e-06
2.35057e-06
1.09483e-06
-5.15723e-07
-2.49114e-06
-4.8305e-06
-7.52123e-06
-1.05389e-05
-1.38477e-05
-1.74012e-05
-2.11439e-05
-2.50132e-05
-2.89414e-05
-3.28584e-05
-3.66946e-05
-4.03828e-05
-4.38614e-05
-4.70756e-05
-4.99792e-05
-5.25357e-05
-5.47195e-05
-5.65158e-05
-5.79205e-05
-5.89387e-05
-5.95847e-05
-5.98799e-05
-5.98517e-05
-5.95312e-05
-5.89498e-05
-5.81381e-05
-5.71282e-05
-5.59515e-05
-5.46313e-05
-5.31826e-05
-5.1622e-05
-4.99678e-05
-4.82153e-05
-4.63638e-05
-4.44338e-05
-4.24098e-05
-4.02879e-05
-3.80862e-05
-3.57887e-05
-3.34206e-05
-3.09883e-05
-2.84611e-05
-2.5895e-05
-2.33689e-05
-2.08012e-05
-1.81944e-05
-1.56917e-05
-1.33579e-05
-1.12139e-05
-9.2673e-06
-7.51962e-06
-5.9678e-06
-4.60471e-06
-3.41903e-06
-2.39787e-06
-1.5249e-06
-7.92009e-07
-1.95756e-07
2.39127e-07
3.27835e-07
4.40296e-19
8.00621e-21
1.02081e-19
4.27115e-19
7.79264e-19
1.03283e-18
1.15964e-18
1.17929e-18
1.12456e-18
1.02383e-18
8.98968e-19
7.66539e-19
6.38304e-19
5.21484e-19
4.19602e-19
3.33519e-19
2.62403e-19
2.04519e-19
1.57803e-19
1.20241e-19
9.00714e-20
6.58604e-20
4.6486e-20
3.10803e-20
1.89634e-20
9.58608e-21
2.48956e-21
-2.71964e-21
-6.38382e-21
-8.80037e-21
-1.02236e-20
-1.08682e-20
-1.09319e-20
-1.06673e-20
-1.04934e-20
-1.09082e-20
-1.14212e-20
-7.16059e-21
1.70205e-20
8.78244e-20
2.13457e-19
2.63586e-19
-3.15182e-19
-2.92642e-18
-9.96062e-18
-2.31945e-17
-3.72145e-17
-2.2535e-17
1.07205e-16
5.42999e-16
1.61979e-15
3.77353e-15
7.25303e-15
1.12981e-14
1.23671e-14
9.59844e-16
-4.31904e-14
-1.57014e-13
-3.98897e-13
-8.47328e-13
-1.58416e-12
-2.64806e-12
-3.93877e-12
-5.05013e-12
-5.01358e-12
-1.94868e-12
7.3509e-12
2.78134e-11
6.63051e-11
1.31401e-10
2.32332e-10
3.76619e-10
5.65848e-10
7.89061e-10
1.01342e-09
1.17216e-09
1.15053e-09
7.71292e-10
-2.17416e-10
-2.1477e-09
-5.42537e-09
-1.05045e-08
-1.78352e-08
-2.77777e-08
-4.04758e-08
-5.56876e-08
-7.25731e-08
-8.94508e-08
-1.03535e-07
-1.10686e-07
-1.05202e-07
-7.97123e-08
-2.52117e-08
6.86943e-08
2.13277e-07
4.19846e-07
6.98549e-07
1.05676e-06
1.49706e-06
2.01473e-06
2.59447e-06
3.2049e-06
3.80356e-06
4.33329e-06
4.7218e-06
4.88264e-06
4.71719e-06
4.11796e-06
2.97319e-06
1.17253e-06
-1.3864e-06
-4.79076e-06
-9.10512e-06
-1.43643e-05
-2.05667e-05
-2.76697e-05
-3.55854e-05
-4.41796e-05
-5.32725e-05
-6.26421e-05
-7.203e-05
-8.1149e-05
-8.9694e-05
-9.73526e-05
-0.000103819
-0.000108807
-0.000112063
-0.000113378
-0.000112599
-0.000109635
-0.000104464
-9.71303e-05
-8.77505e-05
-7.65049e-05
-6.36363e-05
-4.94403e-05
-3.42513e-05
-1.84281e-05
-2.34104e-06
1.36374e-05
2.91412e-05
4.38234e-05
5.73721e-05
6.9518e-05
8.00289e-05
8.86956e-05
9.53754e-05
0.000100009
0.000102565
0.000103005
0.000101375
9.78672e-05
9.25753e-05
8.56002e-05
7.72888e-05
6.78742e-05
5.75137e-05
4.65998e-05
3.54231e-05
2.41732e-05
1.32884e-05
2.9316e-06
-6.64418e-06
-1.51024e-05
-2.24336e-05
-2.85301e-05
-3.31954e-05
-3.64234e-05
-3.83061e-05
-3.89777e-05
-3.85908e-05
-3.73027e-05
-3.52647e-05
-3.26086e-05
-2.94422e-05
-2.58166e-05
-2.17755e-05
-1.71694e-05
-1.23293e-05
-5.50987e-06
-1.70927e-19
8.16349e-19
-4.33099e-18
-1.07415e-17
-1.48708e-17
-1.66385e-17
-1.67792e-17
-1.59339e-17
-1.45671e-17
-1.29597e-17
-1.12822e-17
-9.64513e-18
-8.12121e-18
-6.75244e-18
-5.55682e-18
-4.53494e-18
-3.67594e-18
-2.96241e-18
-2.37415e-18
-1.89085e-18
-1.4939e-18
-1.1674e-18
-8.98415e-19
-6.76762e-19
-4.94555e-19
-3.45635e-19
-2.2507e-19
-1.28766e-19
-5.32134e-20
4.68092e-21
4.76792e-20
7.82621e-20
9.86304e-20
1.10625e-19
1.15548e-19
1.14153e-19
1.07882e-19
1.03578e-19
1.23084e-19
2.09646e-19
3.94073e-19
5.31121e-19
-1.20388e-19
-3.57255e-18
-1.3413e-17
-3.25106e-17
-5.30498e-17
-3.0711e-17
1.64426e-16
8.13337e-16
2.37822e-15
5.34965e-15
9.60292e-15
1.27554e-14
6.88165e-15
-2.68815e-14
-1.25393e-13
-3.49519e-13
-7.82149e-13
-1.50466e-12
-2.52986e-12
-3.66134e-12
-4.24608e-12
-2.79707e-12
3.50331e-12
1.93376e-11
5.16252e-11
1.0936e-10
2.0233e-10
3.37918e-10
5.15033e-10
7.14204e-10
8.83235e-10
9.1854e-10
6.43681e-10
-2.11301e-10
-2.02346e-09
-5.2739e-09
-1.05156e-08
-1.82965e-08
-2.90229e-08
-4.2748e-08
-5.88792e-08
-7.58063e-08
-9.04711e-08
-9.79205e-08
-9.09104e-08
-5.96567e-08
8.14988e-09
1.26924e-07
3.12222e-07
5.79107e-07
9.3975e-07
1.40024e-06
1.95665e-06
2.59053e-06
3.26416e-06
3.91582e-06
4.45584e-06
4.76404e-06
4.68964e-06
4.05887e-06
2.68187e-06
3.58645e-07
-3.10633e-06
-7.88853e-06
-1.4125e-05
-2.18947e-05
-3.11982e-05
-4.19393e-05
-5.39081e-05
-6.67689e-05
-8.0054e-05
-9.31636e-05
-0.000105374
-0.000115852
-0.000123681
-0.000127894
-0.000127505
-0.000121561
-0.000109179
-8.95926e-05
-6.21966e-05
-2.65785e-05
1.74496e-05
6.98315e-05
0.000130255
0.00019815
0.000272706
0.000352891
0.000437489
0.000525148
0.000614418
0.000703818
0.000791872
0.000877153
0.000958335
0.00103424
0.00110387
0.0011664
0.00122123
0.00126795
0.00130639
0.00133656
0.00135862
0.00137273
0.00137925
0.00137873
0.00137165
0.00135824
0.00133882
0.00131412
0.00128422
0.00124899
0.0012091
0.0011646
0.00111526
0.00106155
0.00100384
0.000942153
0.000877151
0.000809304
0.000739237
0.000668319
0.000597043
0.000526015
0.000456739
0.000390544
0.000328383
0.000270894
0.000218473
0.000171317
0.000129454
9.27674e-05
6.10467e-05
3.40199e-05
1.15021e-05
-6.36546e-06
-1.9471e-05
-2.4214e-05
-3.22581e-17
-3.60243e-17
6.56233e-17
1.40986e-16
1.72297e-16
1.77056e-16
1.68759e-16
1.54513e-16
1.38229e-16
1.21761e-16
1.05962e-16
9.12528e-17
7.7864e-17
6.59106e-17
5.54157e-17
4.63311e-17
3.85597e-17
3.19733e-17
2.64281e-17
2.17773e-17
1.78804e-17
1.46105e-17
1.18586e-17
9.53496e-18
7.56834e-18
5.90313e-18
4.49611e-18
3.31308e-18
2.32615e-18
1.51163e-18
8.48661e-19
3.18451e-19
-9.62176e-20
-4.11257e-19
-6.41609e-19
-8.01601e-19
-9.04411e-19
-9.57887e-19
-9.52654e-19
-8.44816e-19
-5.65502e-19
-1.6015e-19
-2.51209e-19
-2.97576e-18
-1.2953e-17
-3.59475e-17
-6.90358e-17
-7.10365e-17
9.91333e-17
7.71837e-16
2.51938e-15
5.9699e-15
1.09439e-14
1.41802e-14
4.75155e-15
-4.33169e-14
-1.79954e-13
-4.84001e-13
-1.05109e-12
-1.93993e-12
-3.03936e-12
-3.80929e-12
-2.85502e-12
2.6654e-12
1.7704e-11
4.97815e-11
1.08695e-10
2.0458e-10
3.4306e-10
5.15985e-10
6.86297e-10
7.66341e-10
5.90524e-10
-1.13777e-10
-1.74888e-09
-4.84919e-09
-1.00434e-08
-1.7951e-08
-2.89848e-08
-4.30342e-08
-5.90129e-08
-7.42794e-08
-8.39697e-08
-8.03302e-08
-5.21946e-08
1.51923e-08
1.39752e-07
3.41265e-07
6.38911e-07
1.04742e-06
1.5718e-06
2.20064e-06
2.89847e-06
3.59778e-06
4.19159e-06
4.52798e-06
4.40793e-06
3.58811e-06
1.79015e-06
-1.28153e-06
-5.90927e-06
-1.23324e-05
-2.07259e-05
-3.11528e-05
-4.35244e-05
-5.75606e-05
-7.27549e-05
-8.83466e-05
-0.000103305
-0.00011633
-0.000125864
-0.000130131
-0.000127188
-0.000115001
-9.15342e-05
-5.4853e-05
-3.23746e-06
6.47008e-05
0.000149907
0.000252781
0.000373095
0.000509927
0.000661636
0.000825865
0.000999586
0.00117919
0.0013606
0.00153945
0.00171124
0.00187151
0.00201607
0.00214113
0.00224351
0.0023207
0.00237112
0.00239409
0.00238989
0.00235967
0.00230536
0.00222961
0.00213577
0.00202765
0.0019094
0.00178518
0.00165914
0.00153558
0.00141852
0.00131151
0.00121741
0.00113869
0.00107738
0.00103486
0.00101122
0.00100573
0.00101823
0.00104608
0.00108658
0.00113686
0.00119311
0.00125172
0.00130862
0.00135999
0.00140234
0.00143238
0.00144791
0.00144716
0.00142908
0.00139381
0.00134238
0.00127646
0.0011981
0.00110947
0.00101274
0.000909818
0.000802285
0.000690927
0.000576685
0.000457766
0.000342674
0.00019629
8.39394e-16
6.81881e-16
-5.15415e-16
-1.1765e-15
-1.38695e-15
-1.37957e-15
-1.2851e-15
-1.15949e-15
-1.02953e-15
-9.05983e-16
-7.92357e-16
-6.89292e-16
-5.96629e-16
-5.14011e-16
-4.40976e-16
-3.76944e-16
-3.21238e-16
-2.73102e-16
-2.31738e-16
-1.96331e-16
-1.66082e-16
-1.40235e-16
-1.18098e-16
-9.90693e-17
-8.26407e-17
-6.84022e-17
-5.6031e-17
-4.52768e-17
-3.59449e-17
-2.788e-17
-2.0954e-17
-1.50558e-17
-1.00857e-17
-5.95143e-18
-2.56626e-18
1.51181e-19
2.27687e-18
3.88316e-18
5.04783e-18
5.87663e-18
6.52823e-18
7.16667e-18
7.63398e-18
6.51215e-18
-5.09152e-19
-2.15546e-17
-6.33527e-17
-1.07383e-16
-4.82757e-17
4.16905e-16
1.90641e-15
5.28746e-15
1.09415e-14
1.6458e-14
1.1516e-14
-3.09509e-14
-1.66074e-13
-4.84006e-13
-1.09483e-12
-2.05714e-12
-3.19685e-12
-3.75058e-12
-1.78378e-12
6.59069e-12
2.7991e-11
7.20226e-11
1.50025e-10
2.70747e-10
4.30889e-10
5.98276e-10
6.86155e-10
5.1919e-10
-2.04035e-10
-1.94051e-09
-5.30378e-09
-1.10055e-08
-1.96974e-08
-3.16679e-08
-4.63557e-08
-6.16598e-08
-7.3073e-08
-7.27315e-08
-4.85641e-08
1.61634e-08
1.42514e-07
3.54273e-07
6.74574e-07
1.12034e-06
1.6943e-06
2.37476e-06
3.10368e-06
3.77442e-06
4.22085e-06
4.21044e-06
3.44418e-06
1.56623e-06
-1.8139e-06
-7.08484e-06
-1.45818e-05
-2.45203e-05
-3.69167e-05
-5.15498e-05
-6.78681e-05
-8.49303e-05
-0.000101358
-0.000115314
-0.000124509
-0.000126253
-0.000117536
-9.51591e-05
-5.59035e-05
3.27232e-06
8.50029e-05
0.000191276
0.000323193
0.000480739
0.000662591
0.000865971
0.00108656
0.00131846
0.00155432
0.0017854
0.00200184
0.00219295
0.00234751
0.00245425
0.00250227
0.00248158
0.00238366
0.00220183
0.00193161
0.00157108
0.00112104
0.000584945
-3.10319e-05
-0.000717995
-0.00146464
-0.00225788
-0.00308338
-0.00392601
-0.00476999
-0.00559944
-0.00639965
-0.00715734
-0.00786121
-0.00849998
-0.00906393
-0.00954645
-0.00994276
-0.0102486
-0.0104605
-0.0105763
-0.0105958
-0.0105204
-0.0103503
-0.0100875
-0.00973701
-0.009303
-0.00879273
-0.0082139
-0.0075765
-0.00689179
-0.00617193
-0.00543202
-0.00468531
-0.00394488
-0.00322576
-0.00254197
-0.00190519
-0.00132426
-0.000805166
-0.000351339
3.59934e-05
0.000357337
0.000614366
0.000808719
0.000942554
0.00101029
0.00102614
0.000909861
-1.16402e-14
-7.46109e-15
2.12752e-15
6.85447e-15
8.35495e-15
8.36577e-15
7.81171e-15
7.0641e-15
6.29476e-15
5.57191e-15
4.9162e-15
4.32784e-15
3.80129e-15
3.33084e-15
2.9117e-15
2.53969e-15
2.21095e-15
1.92174e-15
1.66836e-15
1.44715e-15
1.25453e-15
1.08697e-15
9.41107e-16
8.13824e-16
7.02302e-16
6.0411e-16
5.17232e-16
4.40059e-16
3.71342e-16
3.10122e-16
2.5566e-16
2.07372e-16
1.6477e-16
1.27432e-16
9.4967e-17
6.70085e-17
4.31999e-17
2.31925e-17
6.64785e-18
-6.74771e-18
-1.72463e-17
-2.50033e-17
-3.0167e-17
-3.34258e-17
-3.75095e-17
-4.96456e-17
-8.23649e-17
-1.43376e-16
-1.94213e-16
-4.96069e-17
7.88887e-16
3.26522e-15
8.49613e-15
1.62302e-14
2.05664e-14
1.24376e-15
-8.97746e-14
-3.41499e-13
-8.80188e-13
-1.81162e-12
-3.04535e-12
-3.91414e-12
-2.50998e-12
5.25723e-12
2.66467e-11
7.24561e-11
1.55444e-10
2.84641e-10
4.52645e-10
6.12828e-10
6.44647e-10
3.08917e-10
-7.97911e-10
-3.27019e-09
-7.86511e-09
-1.53692e-08
-2.6296e-08
-4.03498e-08
-5.56138e-08
-6.74715e-08
-6.73654e-08
-4.16382e-08
2.91353e-08
1.6973e-07
4.08034e-07
7.70218e-07
1.27262e-06
1.91008e-06
2.64088e-06
3.36955e-06
3.92968e-06
4.07001e-06
3.44806e-06
1.63633e-06
-1.85428e-06
-7.52943e-06
-1.58425e-05
-2.71019e-05
-4.13579e-05
-5.82743e-05
-7.70258e-05
-9.61729e-05
-0.000113566
-0.0001263
-0.00013073
-0.000122558
-9.70096e-05
-4.91029e-05
2.5989e-05
0.0001325
0.00027357
0.000450716
0.000663303
0.000908071
0.00117874
0.00146576
0.0017562
0.00203389
0.00227971
0.00247218
0.00258826
0.0026042
0.00249673
0.00224416
0.00182754
0.00123163
0.000445785
-0.000535342
-0.00171116
-0.00307473
-0.00461309
-0.00630736
-0.00813334
-0.0100625
-0.0120631
-0.0141015
-0.0161435
-0.0181551
-0.0201036
-0.0219596
-0.0236975
-0.0252952
-0.0267361
-0.0280085
-0.0291074
-0.0300336
-0.0307887
-0.0313809
-0.0318219
-0.0321249
-0.0323025
-0.0323677
-0.0323313
-0.0322034
-0.0319897
-0.0316918
-0.0313088
-0.0308362
-0.0302674
-0.0295939
-0.0288073
-0.0279002
-0.0268675
-0.0257083
-0.0244251
-0.0230243
-0.0215189
-0.0199272
-0.0182713
-0.0165749
-0.0148619
-0.0131547
-0.0114732
-0.00983405
-0.00825005
-0.00672882
-0.00527989
-0.00389917
-0.00265698
-0.00130166
1.07187e-13
5.56094e-14
-1.2105e-15
-2.94011e-14
-3.97691e-14
-4.14335e-14
-3.95841e-14
-3.63667e-14
-3.28117e-14
-2.937e-14
-2.62127e-14
-2.33708e-14
-2.08219e-14
-1.85335e-14
-1.64778e-14
-1.46326e-14
-1.29793e-14
-1.15017e-14
-1.0185e-14
-9.01473e-15
-7.97731e-15
-7.05929e-15
-6.24749e-15
-5.5291e-15
-4.89179e-15
-4.32413e-15
-3.81587e-15
-3.35825e-15
-2.94413e-15
-2.56793e-15
-2.2254e-15
-1.91338e-15
-1.62948e-15
-1.37185e-15
-1.13899e-15
-9.29578e-16
-7.42394e-16
-5.76267e-16
-4.30035e-16
-3.02535e-16
-1.92579e-16
-9.89076e-17
-2.01412e-17
4.51139e-17
9.75722e-17
1.35305e-16
1.5042e-16
1.27699e-16
5.74248e-17
-1.03774e-17
1.67514e-16
1.24762e-15
4.464e-15
1.12117e-14
2.08386e-14
2.46297e-14
-6.13689e-15
-1.37642e-13
-4.87578e-13
-1.20841e-12
-2.38201e-12
-3.73053e-12
-4.02683e-12
-1.28524e-13
1.42566e-11
4.95407e-11
1.19675e-10
2.37668e-10
4.03698e-10
5.81672e-10
6.60968e-10
4.0405e-10
-6.10687e-10
-3.02691e-09
-7.68499e-09
-1.54661e-08
-2.69202e-08
-4.159e-08
-5.69726e-08
-6.7142e-08
-6.11943e-08
-2.18859e-08
7.49089e-08
2.59046e-07
5.62204e-07
1.01016e-06
1.61045e-06
2.33519e-06
3.1001e-06
3.74165e-06
3.99648e-06
3.48826e-06
1.7284e-06
-1.86227e-06
-7.90466e-06
-1.69806e-05
-2.95187e-05
-4.5648e-05
-6.50282e-05
-8.66615e-05
-0.000108714
-0.00012831
-0.000141442
-0.000142936
-0.000126544
-8.5186e-05
-1.13707e-05
0.000102205
0.000261868
0.000472018
0.000734073
0.00104536
0.00139806
0.00177828
0.00216547
0.0025321
0.00284395
0.00306082
0.0031379
0.00302768
0.00268253
0.00205751
0.00111358
-0.00017919
-0.00183845
-0.00386695
-0.00625084
-0.00895927
-0.0119451
-0.0151458
-0.0184851
-0.021877
-0.0252294
-0.0284478
-0.0314411
-0.0341254
-0.0364306
-0.0383012
-0.0396956
-0.0405904
-0.0409849
-0.0408971
-0.0403554
-0.0394025
-0.0380933
-0.0365048
-0.0347025
-0.0327623
-0.0307626
-0.0287812
-0.0268887
-0.0251545
-0.0236402
-0.0223935
-0.0214541
-0.0208485
-0.0205866
-0.0206645
-0.0210618
-0.0217441
-0.0226629
-0.0237585
-0.0249628
-0.0262017
-0.0274012
-0.0284899
-0.0294009
-0.0300774
-0.030475
-0.0305632
-0.0303256
-0.0297579
-0.0288657
-0.0276606
-0.0261588
-0.0243689
-0.0223166
-0.0199443
-0.0175142
-0.0139671
-7.36164e-13
-3.16302e-13
-4.70443e-14
9.58315e-14
1.57863e-13
1.76199e-13
1.74971e-13
1.64948e-13
1.51645e-13
1.3775e-13
1.24521e-13
1.12404e-13
1.0144e-13
9.15253e-14
8.25477e-14
7.4411e-14
6.70383e-14
6.0366e-14
5.43386e-14
4.89049e-14
4.40162e-14
3.96261e-14
3.56891e-14
3.21606e-14
2.89958e-14
2.6151e-14
2.35834e-14
2.12537e-14
1.91267e-14
1.71732e-14
1.537e-14
1.36993e-14
1.21483e-14
1.07077e-14
9.37096e-15
8.13311e-15
6.99033e-15
5.93939e-15
4.97727e-15
4.10106e-15
3.30779e-15
2.59445e-15
1.95802e-15
1.39555e-15
9.04084e-16
4.79974e-16
1.16773e-16
-1.98809e-16
-4.89904e-16
-7.78949e-16
-1.03346e-15
-1.02197e-15
-5.82192e-17
3.23513e-15
1.05934e-14
2.18692e-14
2.8561e-14
5.18004e-16
-1.34043e-13
-5.05301e-13
-1.28355e-12
-2.5571e-12
-3.99205e-12
-4.1334e-12
7.37073e-13
1.80281e-11
5.9828e-11
1.4174e-10
2.76457e-10
4.57555e-10
6.28375e-10
6.32741e-10
1.50552e-10
-1.36544e-09
-4.71418e-09
-1.08666e-08
-2.06877e-08
-3.43483e-08
-5.03294e-08
-6.39899e-08
-6.58083e-08
-3.96468e-08
3.83211e-08
1.99042e-07
4.7714e-07
9.03285e-07
1.4913e-06
2.21961e-06
3.00777e-06
3.69037e-06
3.99242e-06
3.51188e-06
1.71652e-06
-2.03702e-06
-8.45475e-06
-1.82208e-05
-3.18726e-05
-4.96369e-05
-7.12343e-05
-9.56365e-05
-0.000120737
-0.000143114
-0.000157816
-0.000158232
-0.000136126
-8.1874e-05
1.50254e-05
0.000165127
0.000377865
0.000660043
0.00101401
0.00143568
0.0019124
0.00242108
0.00292661
0.00338107
0.0037238
0.00388289
0.00377785
0.00332346
0.00243526
0.00103616
-0.000936338
-0.00352274
-0.0067344
-0.0105473
-0.0148968
-0.0196758
-0.0247367
-0.0299006
-0.0349575
-0.0396789
-0.0438286
-0.0471746
-0.0495042
-0.0506358
-0.0504311
-0.048804
-0.045718
-0.0411881
-0.035295
-0.0281745
-0.0199856
-0.0109252
-0.00121632
0.00890418
0.0192025
0.0294519
0.0394308
0.048935
0.0577883
0.0658296
0.0729181
0.0789407
0.083802
0.087427
0.0897657
0.0907882
0.0904899
0.0888908
0.0860381
0.0820068
0.0768983
0.0708428
0.0639906
0.0565103
0.0485863
0.0404114
0.0321771
0.0240648
0.0162387
0.0088406
0.00198768
-0.00422724
-0.00973496
-0.0144757
-0.0184184
-0.0214456
-0.023674
-0.0245193
4.06912e-12
1.51435e-12
4.02414e-13
-2.38125e-13
-5.57081e-13
-6.81815e-13
-7.10384e-13
-6.90677e-13
-6.48912e-13
-5.98954e-13
-5.48225e-13
-5.00235e-13
-4.56135e-13
-4.159e-13
-3.79203e-13
-3.45697e-13
-3.15094e-13
-2.87155e-13
-2.61683e-13
-2.38497e-13
-2.17427e-13
-1.98312e-13
-1.80996e-13
-1.65327e-13
-1.51154e-13
-1.38326e-13
-1.26692e-13
-1.16099e-13
-1.06399e-13
-9.74585e-14
-8.91609e-14
-8.14127e-14
-7.41422e-14
-6.72971e-14
-6.08406e-14
-5.47479e-14
-4.90023e-14
-4.35922e-14
-3.85092e-14
-3.37467e-14
-2.92989e-14
-2.51598e-14
-2.13239e-14
-1.77853e-14
-1.45379e-14
-1.15753e-14
-8.89156e-15
-6.48262e-15
-4.35057e-15
-2.50823e-15
-9.7514e-16
2.62246e-16
1.37476e-15
2.94384e-15
6.28112e-15
1.34031e-14
2.55183e-14
3.78276e-14
2.77473e-14
-6.46951e-14
-3.5775e-13
-1.02432e-12
-2.20312e-12
-3.71668e-12
-4.45189e-12
-1.28954e-12
1.23299e-11
4.76054e-11
1.19785e-10
2.42817e-10
4.14699e-10
5.88061e-10
6.21868e-10
2.16046e-10
-1.15603e-09
-4.28014e-09
-1.01317e-08
-1.96053e-08
-3.29235e-08
-4.86194e-08
-6.20592e-08
-6.36267e-08
-3.69392e-08
4.22177e-08
2.05221e-07
4.86957e-07
9.17913e-07
1.51107e-06
2.24333e-06
3.03237e-06
3.71092e-06
4.00205e-06
3.50003e-06
1.66277e-06
-2.17713e-06
-8.77412e-06
-1.88949e-05
-3.32014e-05
-5.21026e-05
-7.54069e-05
-0.000102088
-0.00012988
-0.000154883
-0.00017118
-0.000170537
-0.000142295
-7.35419e-05
5.02766e-05
0.000244207
0.000521988
0.000893571
0.00136199
0.00191977
0.0025451
0.00319833
0.00381907
0.00432469
0.00461097
0.00455581
0.00402612
0.00288537
0.00100607
-0.00171663
-0.00535026
-0.00991087
-0.0153509
-0.0215497
-0.0283067
-0.0353333
-0.0422858
-0.0487597
-0.0543122
-0.0584875
-0.0608386
-0.0609591
-0.0585092
-0.0532346
-0.044988
-0.0337322
-0.0195476
-0.00262863
0.0167289
0.0381454
0.0611795
0.0853436
0.11013
0.135044
0.159616
0.183412
0.206052
0.227215
0.24664
0.264119
0.2795
0.292669
0.303547
0.312085
0.318248
0.322018
0.323394
0.322386
0.319023
0.313353
0.305456
0.295436
0.283434
0.269625
0.254221
0.237463
0.219611
0.200934
0.181697
0.162153
0.14253
0.123033
0.103818
0.0850796
0.0667909
0.0499646
0.0309098
-1.9224e-11
-6.66287e-12
-2.29011e-12
3.93388e-13
1.87177e-12
2.54559e-12
2.78725e-12
2.79417e-12
2.68118e-12
2.5124e-12
2.32497e-12
2.13942e-12
1.96515e-12
1.80444e-12
1.65687e-12
1.52143e-12
1.39708e-12
1.28295e-12
1.17833e-12
1.08259e-12
9.95125e-13
9.1536e-13
8.4273e-13
7.76677e-13
7.16664e-13
6.62161e-13
6.12639e-13
5.67551e-13
5.26341e-13
4.88456e-13
4.53376e-13
4.20645e-13
3.89889e-13
3.60816e-13
3.33211e-13
3.06924e-13
2.81849e-13
2.57921e-13
2.35091e-13
2.1333e-13
1.92615e-13
1.72929e-13
1.54254e-13
1.36579e-13
1.19888e-13
1.04172e-13
8.94199e-14
7.56256e-14
6.27842e-14
5.08895e-14
3.99269e-14
2.98689e-14
2.06901e-14
1.24457e-14
5.47328e-15
7.35831e-16
1.22232e-16
5.99323e-15
1.83488e-14
2.69715e-14
-4.05811e-15
-1.58344e-13
-5.82805e-13
-1.45962e-12
-2.85868e-12
-4.35254e-12
-4.26445e-12
1.49077e-12
2.07135e-11
6.54803e-11
1.50025e-10
2.82679e-10
4.47458e-10
5.7095e-10
4.73049e-10
-1.92182e-10
-1.98478e-09
-5.67406e-09
-1.21126e-08
-2.18983e-08
-3.47289e-08
-4.83835e-08
-5.73542e-08
-5.13038e-08
-1.37435e-08
7.84458e-08
2.53837e-07
5.42752e-07
9.70263e-07
1.54537e-06
2.24601e-06
2.99975e-06
3.65964e-06
3.97517e-06
3.55935e-06
1.8572e-06
-1.87009e-06
-8.51352e-06
-1.89965e-05
-3.42521e-05
-5.49617e-05
-8.11986e-05
-0.000111915
-0.000144271
-0.000172856
-0.000188905
-0.000179675
-0.000128241
-1.4002e-05
0.00018581
0.000493359
0.000926066
0.0014912
0.00217952
0.00295875
0.00376761
0.00451172
0.00506168
0.0052528
0.00490151
0.00381177
0.00179448
-0.00131067
-0.00561128
-0.0111384
-0.0178254
-0.0254933
-0.0338468
-0.0424481
-0.0507685
-0.0581882
-0.0640286
-0.0675921
-0.0682019
-0.0652454
-0.0582154
-0.0467424
-0.0306203
-0.00982087
0.0155014
0.0450153
0.0782332
0.114539
0.153222
0.193507
0.234599
0.275717
0.316133
0.355188
0.392317
0.427064
0.459083
0.48813
0.514062
0.536815
0.556391
0.572836
0.58622
0.596623
0.604122
0.608779
0.610634
0.609719
0.606046
0.599622
0.590459
0.578584
0.564053
0.546948
0.527385
0.50551
0.481488
0.455505
0.427736
0.398364
0.367478
0.335387
0.301516
0.268677
0.226332
8.21118e-11
2.86393e-11
1.12396e-11
2.32775e-13
-6.27723e-12
-9.53336e-12
-1.09325e-11
-1.12643e-11
-1.10125e-11
-1.04576e-11
-9.76902e-12
-9.04852e-12
-8.35306e-12
-7.70306e-12
-7.10181e-12
-6.54727e-12
-6.03607e-12
-5.56504e-12
-5.13162e-12
-4.7336e-12
-4.36891e-12
-4.03547e-12
-3.73123e-12
-3.45411e-12
-3.20203e-12
-2.97298e-12
-2.76496e-12
-2.57601e-12
-2.40408e-12
-2.24704e-12
-2.10274e-12
-1.96915e-12
-1.84445e-12
-1.72717e-12
-1.61613e-12
-1.51046e-12
-1.40951e-12
-1.31285e-12
-1.22016e-12
-1.13123e-12
-1.04589e-12
-9.64023e-13
-8.85504e-13
-8.10235e-13
-7.3812e-13
-6.69071e-13
-6.03004e-13
-5.39842e-13
-4.79525e-13
-4.22013e-13
-3.67296e-13
-3.15399e-13
-2.6639e-13
-2.20377e-13
-1.77473e-13
-1.37662e-13
-1.00522e-13
-6.47757e-14
-2.79597e-14
1.29486e-14
5.81048e-14
9.57739e-14
8.51842e-14
-6.71798e-14
-5.24592e-13
-1.49433e-12
-3.0896e-12
-4.97705e-12
-5.70577e-12
-1.69884e-12
1.38633e-11
5.15469e-11
1.24072e-10
2.40198e-10
3.90928e-10
5.25026e-10
5.13145e-10
1.05581e-10
-1.1012e-09
-3.66016e-09
-8.18842e-09
-1.51502e-08
-2.44651e-08
-3.49276e-08
-4.34739e-08
-4.43927e-08
-2.86323e-08
1.66274e-08
1.08e-07
2.65455e-07
5.11359e-07
8.68583e-07
1.35599e-06
1.9772e-06
2.69542e-06
3.38859e-06
3.79594e-06
3.43033e-06
1.47785e-06
-3.28643e-06
-1.25246e-05
-2.8181e-05
-5.20486e-05
-8.49524e-05
-0.00012548
-0.000168484
-0.000203505