/*--------------------------------*- C++ -*----------------------------------*\
| =========                 |                                                 |
| \\      /  F ield         | OpenFOAM: The Open Source CFD Toolbox           |
|  \\    /   O peration     | Version:  4.1                                   |
|   \\  /    A nd           | Web:      www.OpenFOAM.org                      |
|    \\/     M anipulation  |                                                 |
\*---------------------------------------------------------------------------*/
FoamFile
{
    version     2.0;
    format      ascii;
    class       volScalarField;
    location    "0.05";
    object      T;
}
// * * * * * * * * * * * * * * * * * * * * * * * * * * * * * * * * * * * * * //

dimensions      [0 0 0 1 0 0 0];

internalField   nonuniform List<scalar> 
12225
(
0.625082
0.501659
0.482429
0.479445
0.478893
0.478746
0.478693
0.478669
0.478656
0.478646
0.478635
0.478615
0.478566
0.478443
0.478134
0.477371
0.47546
0.470572
0.617081
0.498208
0.480748
0.478495
0.478335
0.47841
0.478486
0.478541
0.478577
0.4786
0.478611
0.478605
0.478567
0.478454
0.478161
0.477437
0.475668
0.471374
0.621282
0.500687
0.482151
0.479347
0.478884
0.478769
0.478724
0.4787
0.478684
0.478672
0.47866
0.478639
0.478592
0.478478
0.4782
0.477537
0.475998
0.47259
0.621277
0.500416
0.481761
0.479003
0.478628
0.478587
0.478593
0.478605
0.478615
0.478622
0.478623
0.478613
0.478576
0.478476
0.47823
0.477655
0.476381
0.47378
0.621238
0.500487
0.481847
0.479071
0.47869
0.478643
0.47864
0.478643
0.478645
0.478646
0.478643
0.47863
0.478594
0.478503
0.478289
0.477807
0.476796
0.474876
0.621177
0.50051
0.481888
0.479083
0.478687
0.478637
0.478634
0.478637
0.478641
0.478642
0.47864
0.478629
0.478599
0.478522
0.478343
0.477957
0.477186
0.475807
0.621178
0.500547
0.481941
0.479115
0.478704
0.47865
0.478644
0.478646
0.478648
0.478649
0.478647
0.478637
0.478611
0.478547
0.478404
0.478107
0.477539
0.476572
0.621179
0.500558
0.481969
0.479137
0.478717
0.478659
0.478652
0.478652
0.478653
0.478654
0.478652
0.478643
0.478621
0.478568
0.478453
0.478222
0.477794
0.477087
0.621177
0.500563
0.481988
0.479156
0.478731
0.478669
0.47866
0.478659
0.478659
0.478659
0.478657
0.478649
0.478631
0.478587
0.478495
0.478314
0.477989
0.477465
0.621174
0.500565
0.482002
0.479173
0.478745
0.47868
0.478669
0.478667
0.478666
0.478666
0.478663
0.478657
0.478641
0.478607
0.478536
0.478401
0.478165
0.477793
0.621171
0.500564
0.482012
0.479188
0.478759
0.478692
0.47868
0.478676
0.478675
0.478673
0.47867
0.478664
0.478653
0.478627
0.478575
0.478479
0.478316
0.478064
0.621167
0.500561
0.482017
0.479198
0.478771
0.478704
0.47869
0.478686
0.478683
0.478681
0.478679
0.478674
0.478665
0.478646
0.478611
0.478547
0.47844
0.478279
0.621164
0.500557
0.482019
0.479205
0.47878
0.478714
0.4787
0.478696
0.478692
0.47869
0.478688
0.478683
0.478677
0.478664
0.478641
0.4786
0.478535
0.478438
0.621161
0.500553
0.482019
0.479209
0.478786
0.47872
0.478708
0.478704
0.478701
0.478698
0.478696
0.478693
0.478688
0.478679
0.478665
0.478641
0.478604
0.47855
0.621158
0.500549
0.482017
0.47921
0.478789
0.478725
0.478713
0.47871
0.478708
0.478706
0.478704
0.478701
0.478698
0.478692
0.478683
0.478671
0.478651
0.478623
0.621156
0.500546
0.482015
0.479209
0.47879
0.478728
0.478717
0.478714
0.478712
0.47871
0.478709
0.478708
0.478705
0.478702
0.478697
0.47869
0.47868
0.478667
0.621154
0.500544
0.482013
0.479208
0.47879
0.478728
0.478718
0.478716
0.478714
0.478714
0.478712
0.478711
0.478709
0.478708
0.478705
0.478701
0.478696
0.478691
0.621154
0.500543
0.482012
0.479208
0.47879
0.478728
0.478718
0.478715
0.478714
0.478714
0.478713
0.478712
0.478711
0.478709
0.478707
0.478705
0.478702
0.478701
0.621154
0.500543
0.482012
0.479207
0.478789
0.478728
0.478718
0.478714
0.478712
0.478712
0.47871
0.478709
0.478708
0.478707
0.478706
0.478704
0.478702
0.478702
0.621154
0.500544
0.482012
0.479207
0.478788
0.478725
0.478715
0.478711
0.478709
0.478707
0.478706
0.478705
0.478704
0.478703
0.478702
0.478701
0.4787
0.4787
0.621154
0.500545
0.482014
0.479206
0.478784
0.47872
0.478709
0.478705
0.478703
0.478701
0.478699
0.478698
0.478697
0.478697
0.478696
0.478695
0.478694
0.478694
0.621154
0.500547
0.482015
0.479204
0.47878
0.478714
0.478702
0.478698
0.478696
0.478694
0.478693
0.478692
0.478692
0.478691
0.478691
0.47869
0.478689
0.47869
0.621152
0.500551
0.482014
0.479195
0.478767
0.478701
0.478689
0.478685
0.478684
0.478683
0.478683
0.478682
0.478682
0.478683
0.478682
0.478682
0.478682
0.478683
0.621147
0.500559
0.482014
0.479187
0.478759
0.478694
0.478684
0.478681
0.478681
0.47868
0.47868
0.47868
0.478681
0.478681
0.478681
0.478681
0.478681
0.478682
0.621134
0.500551
0.481983
0.479149
0.478725
0.478665
0.478657
0.478657
0.478658
0.47866
0.478662
0.478664
0.478665
0.478667
0.478669
0.47867
0.478671
0.478672
0.621195
0.500594
0.48198
0.479154
0.478749
0.478696
0.478689
0.478687
0.478686
0.478685
0.478684
0.478682
0.478681
0.47868
0.47868
0.47868
0.478679
0.47868
0.621276
0.500532
0.481808
0.478971
0.478582
0.478548
0.478561
0.47858
0.478597
0.478611
0.478622
0.478631
0.478639
0.478645
0.478651
0.478655
0.478659
0.478661
0.621626
0.501078
0.482445
0.479563
0.479064
0.478923
0.47885
0.478804
0.478771
0.478747
0.47873
0.478716
0.478707
0.4787
0.478695
0.478691
0.47869
0.478684
0.617042
0.497852
0.480426
0.478232
0.478138
0.478261
0.478372
0.478454
0.478512
0.478553
0.478582
0.478604
0.47862
0.478632
0.478642
0.47865
0.478659
0.478657
0.625111
0.502056
0.482622
0.479575
0.479005
0.478839
0.47877
0.478733
0.478711
0.478697
0.478687
0.47868
0.478676
0.478673
0.478671
0.478671
0.478674
0.478662
0.243103
0.243083
0.243029
0.242953
0.242857
0.242739
0.242599
0.242439
0.242256
0.242053
0.241831
0.24159
0.24133
0.241053
0.24076
0.24045
0.240125
0.239786
0.239435
0.239072
0.238699
0.238317
0.237928
0.237532
0.237132
0.236728
0.236322
0.235916
0.23551
0.235107
0.234708
0.234315
0.233928
0.23355
0.233181
0.232824
0.232479
0.232148
0.231831
0.231531
0.231248
0.230984
0.230739
0.230515
0.230312
0.230131
0.229973
0.229839
0.229728
0.229643
0.229582
0.229546
0.229536
0.229552
0.229593
0.229659
0.229751
0.229868
0.23001
0.230177
0.230367
0.230581
0.230818
0.231078
0.231359
0.23166
0.231982
0.232324
0.232683
0.233061
0.233455
0.233865
0.23429
0.234729
0.235181
0.235645
0.236121
0.236607
0.237102
0.237605
0.238117
0.238634
0.239157
0.239686
0.240217
0.240752
0.241289
0.241827
0.242365
0.242902
0.243438
0.243971
0.244501
0.245028
0.245549
0.246065
0.246574
0.247077
0.247572
0.248059
0.248538
0.249007
0.249466
0.249915
0.250354
0.250781
0.251198
0.251602
0.251994
0.252374
0.252742
0.253096
0.253437
0.253764
0.254077
0.254375
0.254659
0.254927
0.255181
0.255418
0.255639
0.255844
0.256031
0.256202
0.256354
0.256489
0.256605
0.256702
0.25678
0.256838
0.256875
0.256893
0.256889
0.256863
0.256816
0.256747
0.256654
0.256538
0.256398
0.256235
0.256046
0.255832
0.255593
0.255327
0.255035
0.254716
0.254369
0.253994
0.253591
0.253159
0.252697
0.252206
0.251684
0.251132
0.250549
0.249934
0.249288
0.24861
0.247898
0.247155
0.246377
0.245566
0.244724
0.243839
0.242918
0.241964
0.240967
0.239935
0.23887
0.237771
0.236638
0.23547
0.234268
0.233033
0.231767
0.230473
0.229166
0.227832
0.226608
0.225029
0.243751
0.243724
0.243679
0.243611
0.24352
0.243407
0.243272
0.243115
0.242935
0.242732
0.242509
0.242266
0.242004
0.241724
0.241427
0.241114
0.240787
0.240445
0.240091
0.239726
0.23935
0.238966
0.238574
0.238176
0.237774
0.237368
0.23696
0.236552
0.236146
0.235741
0.235341
0.234946
0.234558
0.234178
0.233808
0.233449
0.233102
0.23277
0.232452
0.23215
0.231865
0.231599
0.231352
0.231126
0.230921
0.230738
0.230578
0.230441
0.230328
0.23024
0.230176
0.230138
0.230125
0.230138
0.230176
0.23024
0.230329
0.230443
0.230581
0.230745
0.230932
0.231143
0.231377
0.231633
0.23191
0.232209
0.232528
0.232866
0.233222
0.233597
0.233988
0.234395
0.234817
0.235253
0.235702
0.236164
0.236637
0.23712
0.237613
0.238114
0.238623
0.239139
0.23966
0.240186
0.240717
0.24125
0.241785
0.242322
0.242858
0.243395
0.243929
0.244462
0.244992
0.245517
0.246038
0.246554
0.247063
0.247565
0.24806
0.248547
0.249025
0.249495
0.249954
0.250403
0.250842
0.25127
0.251686
0.252091
0.252484
0.252864
0.253232
0.253586
0.253927
0.254254
0.254568
0.254866
0.25515
0.255419
0.255673
0.25591
0.256131
0.256336
0.256523
0.256694
0.256846
0.25698
0.257096
0.257193
0.25727
0.257328
0.257365
0.257382
0.257377
0.257351
0.257303
0.257233
0.257139
0.257022
0.256882
0.256717
0.256527
0.256312
0.256071
0.255804
0.25551
0.255189
0.25484
0.254464
0.254058
0.253624
0.25316
0.252667
0.252143
0.251588
0.251003
0.250385
0.249736
0.249055
0.24834
0.247593
0.246812
0.245997
0.245151
0.244265
0.243347
0.242399
0.241412
0.24039
0.239333
0.238242
0.237115
0.235954
0.234758
0.233529
0.23227
0.230982
0.229679
0.228356
0.22711
0.225663
0.245056
0.245012
0.244956
0.244882
0.244786
0.244666
0.244523
0.244358
0.24417
0.243961
0.243732
0.243483
0.243215
0.24293
0.242628
0.242311
0.241979
0.241634
0.241276
0.240908
0.240529
0.240143
0.239749
0.239349
0.238945
0.238537
0.238128
0.237718
0.23731
0.236904
0.236502
0.236106
0.235716
0.235334
0.234962
0.234601
0.234253
0.233917
0.233597
0.233292
0.233005
0.232736
0.232486
0.232256
0.232047
0.23186
0.231696
0.231555
0.231438
0.231345
0.231277
0.231234
0.231216
0.231223
0.231256
0.231314
0.231398
0.231506
0.23164
0.231797
0.231979
0.232184
0.232412
0.232663
0.232935
0.233228
0.233542
0.233875
0.234226
0.234595
0.234982
0.235384
0.235802
0.236234
0.236679
0.237137
0.237606
0.238086
0.238576
0.239075
0.239582
0.240095
0.240615
0.24114
0.24167
0.242203
0.242738
0.243275
0.243813
0.24435
0.244887
0.245422
0.245954
0.246482
0.247006
0.247525
0.248039
0.248545
0.249045
0.249536
0.250019
0.250493
0.250958
0.251413
0.251857
0.252291
0.252713
0.253124
0.253522
0.253909
0.254282
0.254643
0.25499
0.255324
0.255643
0.255948
0.256239
0.256514
0.256773
0.257017
0.257244
0.257455
0.257648
0.257825
0.257983
0.258123
0.258244
0.258346
0.258429
0.258492
0.258534
0.258556
0.258556
0.258534
0.25849
0.258424
0.258334
0.258221
0.258084
0.257922
0.257735
0.257523
0.257285
0.25702
0.256728
0.256409
0.256062
0.255687
0.255283
0.25485
0.254387
0.253894
0.25337
0.252816
0.25223
0.251612
0.250962
0.25028
0.249564
0.248816
0.248035
0.247219
0.24637
0.245485
0.244567
0.243618
0.242633
0.241612
0.240557
0.239466
0.238341
0.23718
0.235985
0.234756
0.233496
0.232206
0.230899
0.229569
0.228296
0.226905
0.247002
0.246941
0.246876
0.246794
0.246689
0.246559
0.246407
0.246232
0.246035
0.245817
0.24558
0.245323
0.245049
0.244757
0.244448
0.244125
0.243788
0.243437
0.243075
0.242702
0.242319
0.241929
0.241531
0.241128
0.24072
0.240309
0.239897
0.239484
0.239073
0.238664
0.238259
0.237859
0.237466
0.237081
0.236706
0.236341
0.235988
0.235649
0.235324
0.235015
0.234723
0.234448
0.234193
0.233958
0.233743
0.23355
0.233379
0.233231
0.233107
0.233007
0.232931
0.232881
0.232855
0.232854
0.232879
0.232929
0.233004
0.233104
0.233229
0.233378
0.233551
0.233748
0.233967
0.234209
0.234473
0.234758
0.235063
0.235388
0.235732
0.236093
0.236472
0.236867
0.237278
0.237704
0.238143
0.238595
0.239059
0.239534
0.240019
0.240514
0.241017
0.241528
0.242046
0.242569
0.243097
0.24363
0.244165
0.244703
0.245242
0.245781
0.24632
0.246858
0.247394
0.247927
0.248456
0.24898
0.2495
0.250013
0.250519
0.251017
0.251508
0.25199
0.252463
0.252926
0.253379
0.253821
0.254252
0.254672
0.25508
0.255476
0.25586
0.25623
0.256587
0.256931
0.25726
0.257575
0.257875
0.258161
0.25843
0.258684
0.258921
0.259141
0.259345
0.259531
0.259698
0.259848
0.259978
0.260089
0.260181
0.260253
0.260303
0.260333
0.260341
0.260327
0.260291
0.260231
0.260149
0.260042
0.259911
0.259755
0.259574
0.259367
0.259134
0.258873
0.258586
0.258271
0.257928
0.257556
0.257155
0.256724
0.256263
0.255772
0.25525
0.254697
0.254112
0.253495
0.252846
0.252164
0.251449
0.250701
0.249918
0.249102
0.248252
0.247367
0.246448
0.245497
0.24451
0.243488
0.242431
0.241339
0.240211
0.239049
0.237851
0.23662
0.235356
0.234061
0.232746
0.231405
0.230106
0.228726
0.249587
0.249515
0.24944
0.249351
0.249237
0.249098
0.248936
0.24875
0.248544
0.248316
0.248069
0.247803
0.247519
0.247219
0.246903
0.246572
0.246227
0.245869
0.245501
0.245122
0.244733
0.244337
0.243934
0.243526
0.243113
0.242698
0.242281
0.241864
0.241449
0.241035
0.240626
0.240221
0.239824
0.239434
0.239053
0.238683
0.238325
0.23798
0.237649
0.237334
0.237035
0.236753
0.236491
0.236247
0.236025
0.235823
0.235644
0.235487
0.235354
0.235244
0.235158
0.235098
0.235061
0.23505
0.235064
0.235103
0.235167
0.235256
0.23537
0.235507
0.235669
0.235854
0.236063
0.236293
0.236546
0.23682
0.237114
0.237428
0.237761
0.238113
0.238482
0.238867
0.239269
0.239685
0.240116
0.24056
0.241017
0.241485
0.241964
0.242453
0.242951
0.243458
0.243971
0.244492
0.245018
0.245549
0.246083
0.246621
0.247161
0.247702
0.248244
0.248785
0.249325
0.249863
0.250398
0.250928
0.251454
0.251974
0.252489
0.252996
0.253495
0.253987
0.254469
0.254942
0.255406
0.255859
0.256301
0.256732
0.257152
0.257559
0.257954
0.258337
0.258706
0.259061
0.259403
0.25973
0.260043
0.26034
0.260622
0.260888
0.261138
0.26137
0.261586
0.261783
0.261963
0.262124
0.262266
0.262388
0.262491
0.262573
0.262634
0.262674
0.262692
0.262688
0.262661
0.26261
0.262536
0.262438
0.262314
0.262166
0.261992
0.261792
0.261564
0.26131
0.261028
0.260718
0.260379
0.260011
0.259614
0.259187
0.258729
0.25824
0.257721
0.257169
0.256586
0.25597
0.255321
0.25464
0.253925
0.253176
0.252393
0.251576
0.250725
0.249839
0.248919
0.247965
0.246976
0.245952
0.244893
0.243798
0.242669
0.241504
0.240304
0.239069
0.2378
0.236499
0.235175
0.233822
0.232502
0.23111
0.252828
0.252749
0.252666
0.252568
0.252445
0.252297
0.252124
0.251928
0.25171
0.251472
0.251214
0.250938
0.250644
0.250333
0.250007
0.249667
0.249313
0.248948
0.248571
0.248184
0.247788
0.247385
0.246975
0.246561
0.246142
0.24572
0.245298
0.244875
0.244453
0.244033
0.243618
0.243207
0.242803
0.242407
0.24202
0.241643
0.241278
0.240925
0.240586
0.240262
0.239955
0.239665
0.239393
0.23914
0.238907
0.238695
0.238505
0.238337
0.238192
0.23807
0.237973
0.237899
0.23785
0.237826
0.237827
0.237852
0.237903
0.237978
0.238077
0.238201
0.238349
0.23852
0.238714
0.23893
0.239169
0.239429
0.23971
0.24001
0.24033
0.240669
0.241025
0.241398
0.241788
0.242193
0.242613
0.243047
0.243493
0.243952
0.244423
0.244904
0.245395
0.245895
0.246403
0.246918
0.247441
0.247969
0.248501
0.249038
0.249578
0.25012
0.250664
0.251207
0.251751
0.252293
0.252833
0.25337
0.253903
0.254431
0.254953
0.255469
0.255978
0.25648
0.256972
0.257456
0.257931
0.258396
0.25885
0.259293
0.259725
0.260145
0.260553
0.260949
0.261332
0.261701
0.262056
0.262397
0.262723
0.263035
0.26333
0.26361
0.263873
0.26412
0.264349
0.26456
0.264753
0.264927
0.265082
0.265217
0.265332
0.265426
0.265499
0.265551
0.26558
0.265587
0.26557
0.26553
0.265466
0.265377
0.265262
0.265123
0.264956
0.264764
0.264544
0.264296
0.26402
0.263716
0.263382
0.263019
0.262626
0.262203
0.261748
0.261263
0.260746
0.260196
0.259614
0.259
0.258352
0.257671
0.256955
0.256206
0.255423
0.254605
0.253753
0.252865
0.251944
0.250987
0.249996
0.24897
0.247908
0.246811
0.245679
0.244512
0.243309
0.24207
0.240798
0.239491
0.238158
0.236792
0.235454
0.234038
0.256744
0.25666
0.256571
0.256464
0.256332
0.256174
0.25599
0.255783
0.255554
0.255304
0.255034
0.254746
0.254441
0.254119
0.253782
0.253431
0.253067
0.252691
0.252305
0.251908
0.251504
0.251092
0.250674
0.250251
0.249824
0.249395
0.248964
0.248533
0.248104
0.247677
0.247253
0.246835
0.246423
0.246019
0.245623
0.245237
0.244863
0.244501
0.244152
0.243818
0.243501
0.243199
0.242916
0.242652
0.242407
0.242182
0.241979
0.241798
0.241639
0.241503
0.241391
0.241303
0.241239
0.241199
0.241184
0.241193
0.241228
0.241286
0.241369
0.241476
0.241607
0.241761
0.241938
0.242138
0.24236
0.242603
0.242867
0.243151
0.243455
0.243777
0.244118
0.244476
0.244851
0.245242
0.245648
0.246068
0.246502
0.246949
0.247408
0.247879
0.24836
0.248851
0.249351
0.24986
0.250376
0.250899
0.251427
0.251961
0.252499
0.25304
0.253584
0.254129
0.254675
0.255221
0.255765
0.256307
0.256846
0.257381
0.257911
0.258435
0.258953
0.259464
0.259967
0.260461
0.260947
0.261423
0.261889
0.262345
0.26279
0.263223
0.263645
0.264054
0.26445
0.264833
0.265203
0.265558
0.265899
0.266224
0.266535
0.266829
0.267107
0.267368
0.267611
0.267836
0.268043
0.268232
0.2684
0.268549
0.268678
0.268785
0.268871
0.268935
0.268977
0.268995
0.26899
0.268961
0.268907
0.268828
0.268724
0.268593
0.268436
0.268252
0.26804
0.267799
0.26753
0.267232
0.266905
0.266547
0.266158
0.265739
0.265289
0.264806
0.264292
0.263745
0.263165
0.262551
0.261904
0.261224
0.260508
0.259759
0.258975
0.258156
0.257303
0.256414
0.25549
0.254532
0.253539
0.25251
0.251446
0.250347
0.249213
0.248042
0.246837
0.245595
0.244318
0.243005
0.241665
0.240288
0.238932
0.23749
0.261367
0.261278
0.261181
0.261065
0.260923
0.260754
0.260558
0.260339
0.260098
0.259835
0.259553
0.259252
0.258934
0.258599
0.25825
0.257887
0.257511
0.257123
0.256725
0.256318
0.255902
0.25548
0.255051
0.254618
0.254181
0.253742
0.253302
0.252861
0.252422
0.251986
0.251553
0.251125
0.250703
0.250288
0.249882
0.249486
0.249101
0.248727
0.248367
0.248022
0.247691
0.247377
0.247081
0.246803
0.246544
0.246305
0.246086
0.24589
0.245715
0.245563
0.245434
0.245328
0.245247
0.245189
0.245156
0.245147
0.245162
0.245201
0.245265
0.245352
0.245463
0.245598
0.245755
0.245935
0.246137
0.24636
0.246604
0.246869
0.247154
0.247457
0.247779
0.248119
0.248476
0.248849
0.249238
0.249641
0.250059
0.250491
0.250936
0.251392
0.251861
0.25234
0.252829
0.253327
0.253834
0.254349
0.25487
0.255398
0.255932
0.25647
0.257011
0.257555
0.258101
0.258648
0.259194
0.259739
0.260282
0.260822
0.261358
0.261889
0.262415
0.262934
0.263445
0.263949
0.264445
0.264931
0.265409
0.265876
0.266332
0.266778
0.267212
0.267634
0.268044
0.26844
0.268823
0.269193
0.269548
0.269888
0.270212
0.270521
0.270813
0.271088
0.271346
0.271586
0.271808
0.27201
0.272193
0.272355
0.272498
0.272618
0.272718
0.272794
0.272849
0.272879
0.272886
0.272868
0.272826
0.272758
0.272663
0.272543
0.272395
0.272219
0.272015
0.271782
0.271521
0.27123
0.270908
0.270556
0.270173
0.269758
0.269312
0.268833
0.268321
0.267777
0.267199
0.266587
0.265941
0.265261
0.264546
0.263797
0.263012
0.262193
0.261338
0.260448
0.259523
0.258563
0.257568
0.256537
0.255471
0.25437
0.253233
0.252061
0.250852
0.249608
0.248327
0.24701
0.245662
0.244276
0.242905
0.241438
0.266724
0.266631
0.266525
0.266399
0.266246
0.266064
0.265857
0.265625
0.26537
0.265093
0.264797
0.264482
0.264149
0.2638
0.263437
0.263059
0.262669
0.262268
0.261857
0.261436
0.261008
0.260572
0.260132
0.259686
0.259237
0.258786
0.258334
0.257882
0.257431
0.256983
0.256538
0.256098
0.255665
0.255238
0.25482
0.254411
0.254013
0.253626
0.253253
0.252893
0.252548
0.25222
0.251908
0.251614
0.251339
0.251083
0.250848
0.250634
0.250441
0.25027
0.250122
0.249997
0.249895
0.249817
0.249763
0.249733
0.249726
0.249744
0.249785
0.24985
0.249939
0.25005
0.250185
0.250342
0.25052
0.250721
0.250942
0.251184
0.251446
0.251726
0.252026
0.252344
0.252679
0.253031
0.253399
0.253782
0.254181
0.254593
0.255019
0.255458
0.25591
0.256373
0.256847
0.257331
0.257825
0.258328
0.258839
0.259358
0.259883
0.260414
0.260949
0.261489
0.262031
0.262576
0.263121
0.263667
0.264211
0.264753
0.265292
0.265827
0.266357
0.266881
0.267399
0.26791
0.268413
0.268908
0.269394
0.26987
0.270337
0.270793
0.271238
0.271671
0.272092
0.272501
0.272897
0.273279
0.273646
0.273999
0.274337
0.274659
0.274965
0.275254
0.275525
0.275779
0.276014
0.27623
0.276426
0.276602
0.276757
0.276891
0.277003
0.277093
0.277159
0.277202
0.277221
0.277214
0.277183
0.277125
0.277041
0.27693
0.276791
0.276625
0.276429
0.276205
0.275951
0.275666
0.275351
0.275005
0.274627
0.274218
0.273775
0.2733
0.272792
0.27225
0.271675
0.271065
0.270421
0.269742
0.269027
0.268278
0.267494
0.266674
0.265818
0.264928
0.264001
0.26304
0.262043
0.261011
0.259943
0.25884
0.257702
0.256528
0.255317
0.254071
0.252787
0.251467
0.250114
0.248719
0.247337
0.245847
0.272851
0.272751
0.272636
0.272498
0.272332
0.272137
0.271916
0.271669
0.271399
0.271108
0.270795
0.270464
0.270115
0.26975
0.26937
0.268977
0.268571
0.268153
0.267726
0.26729
0.266846
0.266396
0.26594
0.26548
0.265017
0.264551
0.264085
0.263619
0.263154
0.262692
0.262233
0.26178
0.261332
0.260891
0.260458
0.260034
0.259621
0.25922
0.25883
0.258455
0.258094
0.257748
0.25742
0.257108
0.256815
0.25654
0.256286
0.256052
0.255838
0.255647
0.255477
0.255331
0.255206
0.255105
0.255028
0.254974
0.254943
0.254936
0.254952
0.254992
0.255055
0.25514
0.255249
0.255379
0.255531
0.255705
0.2559
0.256115
0.25635
0.256605
0.256878
0.257169
0.257479
0.257805
0.258148
0.258507
0.258881
0.25927
0.259673
0.26009
0.26052
0.260963
0.261417
0.261883
0.262359
0.262846
0.263342
0.263846
0.264358
0.264877
0.265403
0.265933
0.266468
0.267006
0.267546
0.268087
0.268628
0.269168
0.269706
0.270241
0.270772
0.271298
0.271818
0.272333
0.27284
0.273339
0.273831
0.274314
0.274787
0.27525
0.275703
0.276145
0.276575
0.276993
0.277399
0.277791
0.278169
0.278533
0.278882
0.279215
0.279533
0.279833
0.280117
0.280382
0.280629
0.280857
0.281066
0.281254
0.281421
0.281567
0.281691
0.281792
0.28187
0.281924
0.281953
0.281958
0.281937
0.28189
0.281815
0.281714
0.281584
0.281426
0.281239
0.281022
0.280776
0.280498
0.28019
0.279849
0.279477
0.279073
0.278635
0.278164
0.27766
0.277121
0.276548
0.27594
0.275298
0.27462
0.273907
0.273159
0.272375
0.271555
0.270699
0.269808
0.268881
0.267919
0.266921
0.265888
0.26482
0.263716
0.262576
0.261401
0.26019
0.258942
0.257658
0.256335
0.254979
0.253579
0.252188
0.250681
0.279782
0.279676
0.279549
0.279398
0.279218
0.279008
0.278771
0.278508
0.278221
0.277911
0.277581
0.277231
0.276863
0.276479
0.27608
0.275668
0.275243
0.274807
0.274361
0.273906
0.273444
0.272976
0.272503
0.272025
0.271545
0.271062
0.270579
0.270096
0.269615
0.269137
0.268662
0.268191
0.267727
0.267269
0.26682
0.26638
0.26595
0.265531
0.265124
0.26473
0.264351
0.263987
0.263638
0.263307
0.262993
0.262698
0.262422
0.262166
0.26193
0.261716
0.261523
0.261351
0.261202
0.261076
0.260972
0.260891
0.260833
0.260799
0.260787
0.260798
0.260832
0.260888
0.260967
0.261067
0.261189
0.261332
0.261497
0.261681
0.261885
0.262109
0.262352
0.262613
0.262892
0.263188
0.263501
0.26383
0.264175
0.264536
0.264911
0.2653
0.265704
0.26612
0.26655
0.266992
0.267445
0.267909
0.268384
0.268869
0.269363
0.269865
0.270374
0.27089
0.271412
0.271938
0.272467
0.272998
0.273531
0.274064
0.274595
0.275124
0.275651
0.276173
0.276691
0.277204
0.277711
0.278211
0.278703
0.279188
0.279663
0.28013
0.280587
0.281033
0.281469
0.281892
0.282304
0.282703
0.283089
0.28346
0.283817
0.284159
0.284485
0.284795
0.285088
0.285363
0.285619
0.285857
0.286075
0.286274
0.286451
0.286607
0.286741
0.286852
0.28694
0.287004
0.287043
0.287058
0.287046
0.287008
0.286942
0.28685
0.286728
0.286579
0.286399
0.28619
0.28595
0.285679
0.285377
0.285043
0.284676
0.284277
0.283844
0.283377
0.282877
0.282341
0.281772
0.281167
0.280527
0.279851
0.279139
0.278392
0.277609
0.27679
0.275935
0.275044
0.274118
0.273155
0.272157
0.271124
0.270056
0.268952
0.267813
0.266638
0.265427
0.264179
0.262895
0.261572
0.260215
0.258813
0.257416
0.255897
0.28756
0.287445
0.287306
0.287139
0.286942
0.286715
0.286459
0.286177
0.285869
0.285539
0.285187
0.284816
0.284426
0.28402
0.283598
0.283163
0.282716
0.282257
0.281789
0.281313
0.280829
0.28034
0.279845
0.279347
0.278846
0.278344
0.277841
0.277339
0.276838
0.27634
0.275846
0.275357
0.274874
0.274397
0.273929
0.273469
0.27302
0.272581
0.272155
0.271741
0.271341
0.270956
0.270586
0.270233
0.269897
0.269578
0.269279
0.268998
0.268738
0.268498
0.268278
0.26808
0.267904
0.267749
0.267616
0.267506
0.267418
0.267352
0.267309
0.267288
0.267289
0.267312
0.267357
0.267424
0.267512
0.26762
0.267749
0.267899
0.268068
0.268256
0.268463
0.268688
0.268931
0.269192
0.26947
0.269764
0.270075
0.270401
0.270742
0.271099
0.271469
0.271854
0.272252
0.272664
0.273088
0.273524
0.273972
0.27443
0.274899
0.275377
0.275864
0.276359
0.276861
0.277368
0.27788
0.278395
0.278912
0.279431
0.279949
0.280467
0.280983
0.281496
0.282005
0.282511
0.283011
0.283505
0.283993
0.284474
0.284947
0.285412
0.285867
0.286313
0.286749
0.287174
0.287587
0.287988
0.288377
0.288752
0.289113
0.289459
0.289791
0.290106
0.290404
0.290685
0.290949
0.291193
0.291419
0.291624
0.291809
0.291972
0.292114
0.292233
0.292329
0.292401
0.292448
0.29247
0.292466
0.292436
0.292378
0.292293
0.292179
0.292036
0.291864
0.291661
0.291428
0.291164
0.290867
0.290539
0.290177
0.289783
0.289355
0.288892
0.288396
0.287864
0.287298
0.286696
0.286059
0.285386
0.284676
0.283931
0.28315
0.282332
0.281479
0.280589
0.279664
0.278702
0.277705
0.276673
0.275606
0.274503
0.273365
0.272191
0.270982
0.269736
0.268454
0.267133
0.265778
0.264376
0.262978
0.261451
0.296229
0.296103
0.295948
0.295764
0.295547
0.295299
0.295021
0.294715
0.294383
0.294028
0.29365
0.293252
0.292836
0.292403
0.291954
0.291492
0.291018
0.290533
0.290038
0.289536
0.289026
0.288511
0.287992
0.287469
0.286945
0.286419
0.285893
0.285368
0.284845
0.284325
0.283809
0.283298
0.282793
0.282295
0.281805
0.281324
0.280853
0.280392
0.279944
0.279507
0.279085
0.278676
0.278283
0.277906
0.277545
0.277201
0.276875
0.276568
0.27628
0.276012
0.275764
0.275536
0.275329
0.275143
0.274978
0.274835
0.274714
0.274614
0.274535
0.274478
0.274443
0.274429
0.274436
0.274465
0.274513
0.274583
0.274672
0.274781
0.274909
0.275057
0.275223
0.275407
0.275609
0.275828
0.276065
0.276318
0.276588
0.276873
0.277175
0.277491
0.277822
0.278168
0.278529
0.278903
0.27929
0.279691
0.280104
0.280529
0.280966
0.281413
0.28187
0.282336
0.28281
0.283291
0.283777
0.284268
0.284763
0.28526
0.285758
0.286257
0.286755
0.287251
0.287745
0.288235
0.288722
0.289204
0.289681
0.290152
0.290616
0.291072
0.291521
0.29196
0.292391
0.292811
0.29322
0.293619
0.294005
0.294378
0.294739
0.295085
0.295416
0.295732
0.296032
0.296316
0.296581
0.296829
0.297058
0.297267
0.297456
0.297624
0.29777
0.297894
0.297995
0.298072
0.298125
0.298153
0.298155
0.29813
0.298078
0.297999
0.297891
0.297754
0.297587
0.297391
0.297163
0.296904
0.296613
0.296289
0.295933
0.295543
0.29512
0.294662
0.294169
0.293642
0.293079
0.292481
0.291847
0.291177
0.290471
0.289728
0.288949
0.288134
0.287283
0.286395
0.285472
0.284513
0.283518
0.282488
0.281422
0.280322
0.279187
0.278016
0.27681
0.275568
0.274289
0.272973
0.271622
0.270223
0.268828
0.267299
0.305837
0.305698
0.305525
0.305319
0.305078
0.304804
0.304499
0.304164
0.303802
0.303416
0.303006
0.302576
0.302127
0.30166
0.301179
0.300684
0.300177
0.299659
0.299133
0.298599
0.29806
0.297515
0.296966
0.296415
0.295862
0.295309
0.294756
0.294205
0.293656
0.29311
0.292569
0.292034
0.291504
0.290982
0.290468
0.289963
0.289467
0.288982
0.288509
0.288048
0.2876
0.287166
0.286746
0.286342
0.285954
0.285583
0.285228
0.284892
0.284574
0.284275
0.283994
0.283734
0.283493
0.283273
0.283072
0.282893
0.282734
0.282595
0.282478
0.282381
0.282305
0.282249
0.282214
0.282199
0.282203
0.282228
0.282272
0.282335
0.282417
0.282518
0.282637
0.282774
0.282928
0.2831
0.283289
0.283495
0.283717
0.283955
0.284208
0.284478
0.284763
0.285062
0.285377
0.285706
0.28605
0.286407
0.286778
0.287161
0.287557
0.287965
0.288384
0.288813
0.28925
0.289696
0.290149
0.290608
0.291072
0.291538
0.292008
0.292479
0.29295
0.293421
0.293892
0.29436
0.294826
0.295288
0.295746
0.296199
0.296647
0.297088
0.297522
0.297949
0.298367
0.298776
0.299176
0.299565
0.299943
0.300309
0.300663
0.301003
0.30133
0.301642
0.301938
0.302218
0.302482
0.302728
0.302956
0.303165
0.303354
0.303523
0.30367
0.303796
0.303899
0.303978
0.304033
0.304064
0.304069
0.304048
0.304
0.303924
0.30382
0.303688
0.303525
0.303333
0.303109
0.302855
0.302568
0.302249
0.301897
0.301512
0.301093
0.300639
0.300151
0.299627
0.299068
0.298474
0.297844
0.297177
0.296474
0.295735
0.29496
0.294148
0.2933
0.292416
0.291496
0.29054
0.289548
0.288522
0.28746
0.286363
0.285232
0.284066
0.282865
0.281628
0.280355
0.279045
0.277701
0.276309
0.274919
0.273393
0.316439
0.316283
0.316088
0.315856
0.315585
0.315278
0.314938
0.314567
0.314167
0.313741
0.313291
0.31282
0.312329
0.311822
0.311299
0.310764
0.310217
0.309661
0.309096
0.308526
0.307949
0.307369
0.306786
0.306201
0.305616
0.305031
0.304447
0.303865
0.303287
0.302713
0.302143
0.301579
0.301022
0.300473
0.299931
0.299399
0.298877
0.298365
0.297864
0.297375
0.296899
0.296437
0.295989
0.295555
0.295137
0.294735
0.294349
0.29398
0.293628
0.293295
0.292979
0.292682
0.292404
0.292145
0.291905
0.291685
0.291484
0.291303
0.291142
0.291
0.290878
0.290775
0.290692
0.290628
0.290583
0.290557
0.29055
0.290561
0.290591
0.290638
0.290704
0.290787
0.290887
0.291004
0.291138
0.291289
0.291455
0.291638
0.291837
0.292052
0.292283
0.292528
0.29279
0.293066
0.293357
0.293662
0.293982
0.294315
0.294662
0.295022
0.295393
0.295775
0.296167
0.29657
0.29698
0.297397
0.29782
0.298247
0.298679
0.299113
0.29955
0.299987
0.300425
0.300863
0.301299
0.301733
0.302164
0.302592
0.303015
0.303433
0.303846
0.304252
0.304651
0.305042
0.305424
0.305797
0.306161
0.306513
0.306854
0.307182
0.307498
0.3078
0.308087
0.30836
0.308616
0.308855
0.309077
0.309281
0.309466
0.309631
0.309775
0.309898
0.31
0.310078
0.310132
0.310163
0.310168
0.310148
0.310101
0.310026
0.309924
0.309794
0.309634
0.309444
0.309224
0.308972
0.308689
0.308373
0.308025
0.307643
0.307228
0.306778
0.306294
0.305774
0.305219
0.304629
0.304003
0.30334
0.302642
0.301907
0.301136
0.300328
0.299484
0.298604
0.297689
0.296737
0.29575
0.294729
0.293672
0.292581
0.291455
0.290295
0.289101
0.287871
0.286607
0.285305
0.28397
0.282588
0.281207
0.279688
0.328095
0.327919
0.327696
0.32743
0.327121
0.326772
0.326386
0.325967
0.325517
0.325039
0.324538
0.324014
0.323472
0.322913
0.32234
0.321754
0.321159
0.320556
0.319945
0.31933
0.31871
0.318088
0.317465
0.316841
0.316218
0.315596
0.314977
0.314361
0.313749
0.313142
0.31254
0.311945
0.311357
0.310776
0.310205
0.309642
0.309089