/*--------------------------------*- C++ -*----------------------------------*\
| =========                 |                                                 |
| \\      /  F ield         | OpenFOAM: The Open Source CFD Toolbox           |
|  \\    /   O peration     | Version:  4.1                                   |
|   \\  /    A nd           | Web:      www.OpenFOAM.org                      |
|    \\/     M anipulation  |                                                 |
\*---------------------------------------------------------------------------*/
FoamFile
{
    version     2.0;
    format      ascii;
    class       volScalarField;
    location    "0.08";
    object      T;
}
// * * * * * * * * * * * * * * * * * * * * * * * * * * * * * * * * * * * * * //

dimensions      [0 0 0 1 0 0 0];

internalField   nonuniform List<scalar> 
12225
(
0.625082
0.501659
0.482429
0.479445
0.478893
0.478746
0.478693
0.478669
0.478656
0.478647
0.47864
0.478627
0.478599
0.478528
0.47835
0.477911
0.476807
0.474034
0.617081
0.498208
0.480748
0.478495
0.478335
0.47841
0.478486
0.478541
0.478578
0.478602
0.478615
0.478617
0.478599
0.478536
0.478369
0.477952
0.476933
0.47445
0.621282
0.500687
0.482151
0.479347
0.478884
0.478769
0.478724
0.4787
0.478685
0.478674
0.478664
0.47865
0.478622
0.478555
0.478395
0.478012
0.477126
0.47516
0.621277
0.500416
0.481761
0.479003
0.478628
0.478587
0.478593
0.478605
0.478616
0.478624
0.478627
0.478624
0.478604
0.478548
0.478407
0.478077
0.477344
0.47584
0.621238
0.500487
0.481847
0.479071
0.47869
0.478643
0.47864
0.478643
0.478646
0.478647
0.478646
0.47864
0.478619
0.478568
0.478445
0.478167
0.477585
0.476474
0.621177
0.50051
0.481888
0.479083
0.478687
0.478637
0.478634
0.478638
0.478641
0.478643
0.478644
0.478638
0.478621
0.478578
0.478476
0.478254
0.477809
0.477011
0.621178
0.500547
0.481941
0.479115
0.478704
0.47865
0.478645
0.478646
0.478649
0.47865
0.47865
0.478645
0.478631
0.478594
0.478512
0.478341
0.478014
0.477455
0.621179
0.500558
0.481969
0.479137
0.478717
0.478659
0.478652
0.478652
0.478654
0.478655
0.478654
0.47865
0.478638
0.478608
0.478542
0.478409
0.478161
0.477753
0.621177
0.500563
0.481988
0.479156
0.478731
0.478669
0.47866
0.478659
0.47866
0.47866
0.478659
0.478655
0.478645
0.47862
0.478567
0.478463
0.478275
0.477973
0.621174
0.500565
0.482002
0.479173
0.478745
0.47868
0.478669
0.478667
0.478667
0.478666
0.478665
0.478662
0.478653
0.478633
0.478592
0.478515
0.478378
0.478163
0.621171
0.500564
0.482012
0.479188
0.478759
0.478692
0.47868
0.478676
0.478675
0.478674
0.478672
0.478668
0.478662
0.478647
0.478617
0.478562
0.478467
0.478322
0.621167
0.500561
0.482017
0.479198
0.478771
0.478704
0.47869
0.478686
0.478684
0.478682
0.47868
0.478677
0.478671
0.478661
0.47864
0.478603
0.478541
0.478448
0.621164
0.500557
0.482019
0.479205
0.47878
0.478714
0.4787
0.478696
0.478692
0.47869
0.478688
0.478685
0.478681
0.478674
0.47866
0.478636
0.478598
0.478543
0.621161
0.500553
0.482019
0.479209
0.478786
0.47872
0.478708
0.478704
0.478701
0.478699
0.478696
0.478694
0.478691
0.478685
0.478677
0.478663
0.478641
0.47861
0.621158
0.500549
0.482017
0.47921
0.478789
0.478725
0.478713
0.47871
0.478708
0.478706
0.478704
0.478702
0.478699
0.478695
0.47869
0.478682
0.47867
0.478655
0.621156
0.500546
0.482015
0.479209
0.47879
0.478728
0.478717
0.478714
0.478712
0.47871
0.478709
0.478708
0.478706
0.478703
0.4787
0.478695
0.478689
0.478682
0.621154
0.500544
0.482013
0.479208
0.47879
0.478728
0.478718
0.478716
0.478714
0.478714
0.478712
0.478711
0.47871
0.478709
0.478707
0.478704
0.4787
0.478697
0.621154
0.500543
0.482012
0.479208
0.47879
0.478728
0.478718
0.478715
0.478714
0.478714
0.478713
0.478712
0.478711
0.478709
0.478707
0.478706
0.478704
0.478703
0.621154
0.500543
0.482012
0.479207
0.478789
0.478728
0.478718
0.478714
0.478712
0.478712
0.47871
0.478709
0.478708
0.478707
0.478706
0.478704
0.478703
0.478703
0.621154
0.500544
0.482012
0.479207
0.478788
0.478725
0.478715
0.478711
0.478709
0.478707
0.478706
0.478705
0.478704
0.478703
0.478702
0.478701
0.4787
0.478701
0.621154
0.500545
0.482014
0.479206
0.478784
0.47872
0.478709
0.478705
0.478703
0.478701
0.478699
0.478698
0.478697
0.478697
0.478696
0.478695
0.478694
0.478695
0.621154
0.500547
0.482015
0.479204
0.47878
0.478714
0.478702
0.478698
0.478696
0.478694
0.478693
0.478692
0.478692
0.478691
0.478691
0.478691
0.478689
0.47869
0.621152
0.500551
0.482014
0.479195
0.478767
0.478701
0.478689
0.478685
0.478684
0.478683
0.478683
0.478682
0.478682
0.478683
0.478682
0.478682
0.478682
0.478683
0.621147
0.500559
0.482014
0.479187
0.478759
0.478694
0.478684
0.478681
0.478681
0.47868
0.47868
0.47868
0.478681
0.478681
0.478681
0.478681
0.478681
0.478682
0.621134
0.500551
0.481983
0.479149
0.478725
0.478665
0.478657
0.478657
0.478658
0.47866
0.478662
0.478664
0.478665
0.478667
0.478669
0.47867
0.478671
0.478673
0.621195
0.500594
0.48198
0.479154
0.478749
0.478696
0.478689
0.478687
0.478686
0.478685
0.478684
0.478682
0.478681
0.47868
0.47868
0.47868
0.478679
0.47868
0.621276
0.500532
0.481808
0.478971
0.478582
0.478548
0.478561
0.47858
0.478597
0.478611
0.478622
0.478631
0.478639
0.478645
0.478651
0.478655
0.478659
0.478661
0.621626
0.501078
0.482445
0.479563
0.479064
0.478923
0.47885
0.478804
0.478771
0.478747
0.47873
0.478716
0.478707
0.4787
0.478695
0.478691
0.47869
0.478684
0.617042
0.497852
0.480426
0.478232
0.478138
0.478261
0.478372
0.478454
0.478512
0.478553
0.478582
0.478604
0.47862
0.478632
0.478642
0.47865
0.478659
0.478657
0.625111
0.502056
0.482622
0.479575
0.479005
0.478839
0.47877
0.478733
0.478711
0.478697
0.478687
0.47868
0.478676
0.478673
0.478671
0.478671
0.478674
0.478662
0.342821
0.342818
0.342791
0.342756
0.34272
0.342676
0.342627
0.342574
0.342513
0.342447
0.342379
0.342307
0.342232
0.342153
0.342072
0.341989
0.341905
0.341819
0.341734
0.341649
0.341566
0.341485
0.341406
0.341331
0.34126
0.341195
0.341135
0.341081
0.341035
0.340997
0.340967
0.340947
0.340936
0.340936
0.340948
0.340971
0.341006
0.341054
0.341115
0.341189
0.341278
0.34138
0.341497
0.341629
0.341775
0.341936
0.342112
0.342303
0.342508
0.342729
0.342964
0.343213
0.343477
0.343754
0.344044
0.344348
0.344664
0.344993
0.345333
0.345684
0.346045
0.346417
0.346798
0.347187
0.347585
0.347991
0.348403
0.348822
0.349247
0.349677
0.350111
0.35055
0.350992
0.351437
0.351884
0.352334
0.352785
0.353237
0.353689
0.354141
0.354593
0.355045
0.355495
0.355943
0.35639
0.356835
0.357277
0.357716
0.358151
0.358583
0.359011
0.359436
0.359855
0.360271
0.360681
0.361086
0.361485
0.36188
0.362268
0.362651
0.363027
0.363398
0.363762
0.36412
0.364472
0.364817
0.365155
0.365487
0.365812
0.366131
0.366442
0.366747
0.367045
0.367336
0.367621
0.367898
0.368168
0.368431
0.368686
0.368934
0.369175
0.369409
0.369634
0.369853
0.370063
0.370266
0.37046
0.370647
0.370826
0.370996
0.371158
0.371311
0.371456
0.371593
0.37172
0.371839
0.371949
0.37205
0.372141
0.372224
0.372296
0.37236
0.372414
0.372458
0.372492
0.372516
0.372531
0.372535
0.372529
0.372513
0.372486
0.37245
0.372403
0.372345
0.372277
0.372198
0.372109
0.372009
0.371898
0.371778
0.371645
0.371502
0.371352
0.371177
0.370991
0.370794
0.370575
0.370346
0.370109
0.369862
0.369605
0.369339
0.369064
0.36878
0.368488
0.368185
0.367888
0.367551
0.367357
0.366469
0.343199
0.343188
0.343174
0.343154
0.343127
0.343094
0.343055
0.343008
0.342954
0.342893
0.342825
0.342752
0.342675
0.342595
0.342511
0.342425
0.342338
0.34225
0.342162
0.342074
0.341988
0.341903
0.341822
0.341744
0.341671
0.341602
0.34154
0.341484
0.341435
0.341394
0.341362
0.341339
0.341327
0.341324
0.341333
0.341354
0.341386
0.341432
0.34149
0.341562
0.341648
0.341748
0.341862
0.341991
0.342134
0.342293
0.342466
0.342654
0.342857
0.343075
0.343307
0.343553
0.343814
0.344088
0.344376
0.344676
0.344989
0.345314
0.345651
0.345999
0.346357
0.346726
0.347104
0.34749
0.347885
0.348288
0.348697
0.349113
0.349534
0.349961
0.350393
0.350828
0.351268
0.35171
0.352154
0.352601
0.353049
0.353498
0.353947
0.354397
0.354846
0.355294
0.355742
0.356188
0.356632
0.357073
0.357512
0.357949
0.358381
0.358811
0.359236
0.359657
0.360074
0.360486
0.360894
0.361296
0.361692
0.362083
0.362469
0.362848
0.363222
0.363589
0.36395
0.364305
0.364653
0.364995
0.36533
0.365659
0.365981
0.366296
0.366604
0.366906
0.367201
0.367488
0.367769
0.368042
0.368309
0.368568
0.36882
0.369065
0.369302
0.369531
0.369753
0.369967
0.370174
0.370372
0.370563
0.370745
0.37092
0.371086
0.371244
0.371393
0.371534
0.371666
0.371789
0.371903
0.372009
0.372105
0.372192
0.37227
0.372338
0.372397
0.372446
0.372485
0.372515
0.372535
0.372544
0.372543
0.372533
0.372512
0.37248
0.372438
0.372386
0.372322
0.372249
0.372164
0.372069
0.371963
0.371846
0.371719
0.371578
0.371428
0.371271
0.371094
0.370911
0.370722
0.370517
0.370301
0.370075
0.369838
0.369592
0.369335
0.369069
0.368794
0.368511
0.368219
0.36793
0.367615
0.367395
0.366748
0.343973
0.343938
0.343913
0.343889
0.343858
0.343821
0.343775
0.343722
0.343662
0.343595
0.343523
0.343446
0.343365
0.34328
0.343193
0.343103
0.343012
0.342921
0.342829
0.342738
0.342649
0.342562
0.342478
0.342397
0.342321
0.34225
0.342185
0.342126
0.342075
0.342031
0.341996
0.34197
0.341954
0.341948
0.341954
0.341971
0.342
0.342041
0.342096
0.342164
0.342246
0.342341
0.342451
0.342575
0.342714
0.342868
0.343036
0.34322
0.343418
0.34363
0.343857
0.344098
0.344354
0.344623
0.344905
0.3452
0.345508
0.345828
0.34616
0.346502
0.346856
0.347219
0.347592
0.347974
0.348364
0.348762
0.349167
0.349578
0.349995
0.350418
0.350845
0.351277
0.351713
0.352151
0.352592
0.353036
0.353481
0.353927
0.354374
0.354821
0.355268
0.355714
0.35616
0.356604
0.357046
0.357487
0.357925
0.35836
0.358792
0.359221
0.359646
0.360067
0.360484
0.360897
0.361304
0.361707
0.362104
0.362496
0.362883
0.363263
0.363638
0.364006
0.364368
0.364725
0.365074
0.365417
0.365754
0.366084
0.366408
0.366724
0.367034
0.367337
0.367633
0.367923
0.368205
0.36848
0.368748
0.369008
0.369262
0.369508
0.369746
0.369977
0.3702
0.370415
0.370623
0.370823
0.371014
0.371198
0.371373
0.37154
0.371698
0.371848
0.371989
0.372121
0.372245
0.372359
0.372465
0.372561
0.372648
0.372725
0.372793
0.372851
0.3729
0.372938
0.372967
0.372985
0.372993
0.372991
0.372979
0.372956
0.372923
0.372879
0.372825
0.372759
0.372684
0.372597
0.372499
0.37239
0.37227
0.372139
0.371998
0.371845
0.371683
0.371506
0.371322
0.371132
0.370929
0.370715
0.37049
0.370255
0.370009
0.369754
0.369488
0.369213
0.36893
0.368638
0.368346
0.36803
0.367783
0.367268
0.34511
0.345056
0.345021
0.344991
0.344954
0.344909
0.344855
0.344795
0.344728
0.344655
0.344577
0.344495
0.344408
0.344319
0.344226
0.344132
0.344036
0.34394
0.343844
0.343749
0.343655
0.343563
0.343474
0.343389
0.343309
0.343233
0.343163
0.343099
0.343043
0.342994
0.342954
0.342923
0.342901
0.34289
0.34289
0.342901
0.342924
0.342959
0.343007
0.343068
0.343143
0.343232
0.343335
0.343452
0.343583
0.343729
0.34389
0.344065
0.344255
0.34446
0.344679
0.344912
0.345159
0.34542
0.345694
0.345981
0.346281
0.346593
0.346916
0.347251
0.347597
0.347952
0.348317
0.348692
0.349074
0.349465
0.349862
0.350267
0.350678
0.351094
0.351515
0.351941
0.352371
0.352804
0.353239
0.353678
0.354118
0.35456
0.355003
0.355446
0.35589
0.356333
0.356776
0.357217
0.357658
0.358097
0.358533
0.358968
0.359399
0.359828
0.360253
0.360674
0.361092
0.361505
0.361914
0.362318
0.362717
0.363111
0.3635
0.363882
0.36426
0.364631
0.364996
0.365355
0.365708
0.366054
0.366394
0.366728
0.367055
0.367375
0.367689
0.367995
0.368295
0.368588
0.368874
0.369153
0.369424
0.369689
0.369946
0.370195
0.370437
0.370672
0.370898
0.371117
0.371328
0.371531
0.371726
0.371912
0.372091
0.372261
0.372422
0.372574
0.372718
0.372852
0.372978
0.373095
0.373202
0.3733
0.373388
0.373467
0.373536
0.373596
0.373645
0.373684
0.373713
0.373732
0.373741
0.373739
0.373726
0.373703
0.37367
0.373625
0.37357
0.373503
0.373426
0.373338
0.373239
0.373129
0.373007
0.372875
0.372732
0.372577
0.372413
0.372235
0.372049
0.371855
0.371649
0.371432
0.371205
0.370967
0.370719
0.37046
0.370191
0.369913
0.369626
0.36933
0.369031
0.368708
0.368443
0.36799
0.346604
0.346539
0.346497
0.346461
0.346419
0.346366
0.346306
0.346239
0.346165
0.346085
0.346
0.345911
0.345818
0.345721
0.345622
0.345522
0.34542
0.345317
0.345215
0.345113
0.345013
0.344915
0.34482
0.344729
0.344642
0.34456
0.344483
0.344413
0.34435
0.344295
0.344247
0.344209
0.34418
0.344162
0.344154
0.344157
0.344171
0.344198
0.344238
0.34429
0.344356
0.344436
0.344529
0.344637
0.344758
0.344894
0.345045
0.34521
0.34539
0.345584
0.345792
0.346015
0.346251
0.346501
0.346764
0.347041
0.34733
0.347631
0.347944
0.348268
0.348603
0.348948
0.349303
0.349667
0.35004
0.350421
0.350809
0.351205
0.351606
0.352014
0.352427
0.352845
0.353266
0.353692
0.354121
0.354552
0.354986
0.355422
0.355859
0.356297
0.356736
0.357175
0.357614
0.358052
0.358489
0.358925
0.35936
0.359792
0.360223
0.36065
0.361075
0.361496
0.361914
0.362329
0.362739
0.363144
0.363545
0.363941
0.364332
0.364717
0.365097
0.365472
0.36584
0.366203
0.366559
0.366909
0.367253
0.367591
0.367922
0.368246
0.368564
0.368875
0.369179
0.369477
0.369767
0.37005
0.370326
0.370595
0.370857
0.371111
0.371357
0.371596
0.371827
0.37205
0.372265
0.372472
0.372671
0.372861
0.373043
0.373216
0.373381
0.373537
0.373683
0.373821
0.37395
0.374069
0.374178
0.374279
0.374369
0.37445
0.37452
0.374581
0.374631
0.374672
0.374701
0.374721
0.37473
0.374728
0.374715
0.374692
0.374658
0.374612
0.374556
0.374488
0.37441
0.374321
0.37422
0.374108
0.373984
0.37385
0.373704
0.373547
0.37338
0.3732
0.373011
0.372813
0.372603
0.372383
0.372152
0.37191
0.371658
0.371396
0.371123
0.370841
0.370549
0.370247
0.369941
0.369611
0.369335
0.368905
0.34847
0.348398
0.348351
0.34831
0.348261
0.348202
0.348135
0.34806
0.347978
0.347891
0.347798
0.347701
0.3476
0.347496
0.347389
0.347281
0.347171
0.34706
0.34695
0.346841
0.346733
0.346628
0.346525
0.346426
0.346331
0.346241
0.346156
0.346078
0.346006
0.345942
0.345886
0.345839
0.345801
0.345773
0.345755
0.345748
0.345753
0.345769
0.345798
0.34584
0.345894
0.345962
0.346044
0.34614
0.346249
0.346373
0.346511
0.346664
0.346831
0.347012
0.347207
0.347416
0.347639
0.347876
0.348126
0.348389
0.348665
0.348953
0.349253
0.349564
0.349886
0.350218
0.35056
0.350912
0.351273
0.351642
0.352018
0.352402
0.352793
0.353189
0.353591
0.353999
0.354411
0.354827
0.355246
0.355669
0.356095
0.356523
0.356952
0.357384
0.357816
0.358249
0.358682
0.359115
0.359548
0.35998
0.360411
0.360841
0.361269
0.361695
0.362118
0.362539
0.362957
0.363371
0.363782
0.364188
0.364591
0.364988
0.365381
0.365769
0.366152
0.366529
0.366901
0.367267
0.367627
0.367981
0.368329
0.368671
0.369006
0.369335
0.369657
0.369973
0.370281
0.370583
0.370879
0.371167
0.371447
0.371721
0.371987
0.372246
0.372497
0.372741
0.372976
0.373204
0.373423
0.373635
0.373838
0.374032
0.374218
0.374395
0.374563
0.374723
0.374873
0.375013
0.375145
0.375267
0.375379
0.375481
0.375574
0.375656
0.375729
0.375791
0.375842
0.375883
0.375914
0.375934
0.375942
0.37594
0.375927
0.375904
0.375868
0.375822
0.375765
0.375695
0.375615
0.375524
0.375421
0.375306
0.37518
0.375043
0.374894
0.374734
0.374563
0.374381
0.374188
0.373985
0.373771
0.373547
0.373312
0.373066
0.37281
0.372543
0.372266
0.371978
0.371682
0.371373
0.371061
0.370724
0.370439
0.370012
0.350716
0.350644
0.350593
0.350546
0.350492
0.350426
0.350352
0.350269
0.35018
0.350084
0.349983
0.349877
0.349767
0.349654
0.349538
0.34942
0.349301
0.349182
0.349063
0.348944
0.348827
0.348712
0.3486
0.348491
0.348387
0.348287
0.348192
0.348104
0.348022
0.347948
0.347881
0.347823
0.347774
0.347734
0.347705
0.347686
0.347679
0.347683
0.347699
0.347727
0.347769
0.347823
0.347891
0.347973
0.348068
0.348177
0.348301
0.348438
0.34859
0.348756
0.348935
0.349129
0.349337
0.349558
0.349792
0.350039
0.350299
0.350571
0.350856
0.351151
0.351458
0.351775
0.352102
0.352439
0.352784
0.353139
0.353501
0.353871
0.354248
0.354631
0.35502
0.355415
0.355815
0.356219
0.356627
0.357039
0.357455
0.357872
0.358293
0.358715
0.359139
0.359564
0.35999
0.360416
0.360843
0.36127
0.361696
0.362121
0.362546
0.362968
0.363389
0.363808
0.364224
0.364638
0.365048
0.365455
0.365858
0.366257
0.366651
0.367041
0.367426
0.367806
0.36818
0.368549
0.368912
0.36927
0.369621
0.369967
0.370306
0.370639
0.370965
0.371285
0.371599
0.371905
0.372205
0.372498
0.372783
0.373062
0.373333
0.373597
0.373852
0.374101
0.374341
0.374573
0.374797
0.375013
0.37522
0.375418
0.375608
0.375789
0.375961
0.376124
0.376277
0.376421
0.376556
0.37668
0.376795
0.3769
0.376994
0.377078
0.377152
0.377215
0.377268
0.37731
0.377341
0.377361
0.37737
0.377367
0.377353
0.377329
0.377292
0.377245
0.377186
0.377114
0.377032
0.376938
0.376832
0.376715
0.376586
0.376445
0.376293
0.376129
0.375955
0.375768
0.375571
0.375364
0.375145
0.374916
0.374676
0.374426
0.374165
0.373893
0.373611
0.373318
0.373016
0.372701
0.372382
0.372038
0.371744
0.37131
0.353368
0.353295
0.35324
0.353188
0.353126
0.353054
0.352972
0.352881
0.352783
0.352678
0.352568
0.352452
0.352332
0.352209
0.352083
0.351954
0.351825
0.351695
0.351565
0.351436
0.351308
0.351182
0.351058
0.350939
0.350823
0.350711
0.350605
0.350505
0.350411
0.350324
0.350245
0.350174
0.350112
0.35006
0.350017
0.349984
0.349963
0.349952
0.349954
0.349967
0.349993
0.350032
0.350084
0.350149
0.350228
0.350321
0.350427
0.350547
0.350682
0.35083
0.350992
0.351168
0.351357
0.35156
0.351776
0.352005
0.352247
0.352501
0.352767
0.353044
0.353333
0.353632
0.353942
0.354261
0.354589
0.354927
0.355272
0.355626
0.355986
0.356354
0.356728
0.357107
0.357492
0.357882
0.358277
0.358675
0.359078
0.359483
0.359892
0.360303
0.360716
0.361131
0.361547
0.361965
0.362384
0.362803
0.363222
0.363641
0.36406
0.364478
0.364895
0.36531
0.365723
0.366134
0.366543
0.366949
0.367351
0.367749
0.368144
0.368535
0.36892
0.369302
0.369678
0.370049
0.370414
0.370774
0.371129
0.371477
0.37182
0.372156
0.372486
0.37281
0.373127
0.373438
0.373742
0.374039
0.374329
0.374612
0.374887
0.375155
0.375416
0.375668
0.375913
0.376149
0.376377
0.376597
0.376809
0.377011
0.377205
0.377389
0.377565
0.377731
0.377887
0.378034
0.378171
0.378299
0.378416
0.378522
0.378619
0.378704
0.37878
0.378844
0.378897
0.378939
0.37897
0.378991
0.378999
0.378996
0.378982
0.378956
0.378918
0.378868
0.378807
0.378734
0.378649
0.378552
0.378443
0.378322
0.37819
0.378045
0.377889
0.377721
0.377542
0.377352
0.37715
0.376938
0.376714
0.37648
0.376235
0.375979
0.375712
0.375435
0.375148
0.374849
0.374541
0.37422
0.373893
0.373542
0.37324
0.372795
0.356444
0.35637
0.35631
0.356251
0.356183
0.356102
0.356012
0.355912
0.355804
0.355689
0.355568
0.355442
0.355311
0.355176
0.355038
0.354898
0.354757
0.354615
0.354472
0.354331
0.35419
0.354052
0.353916
0.353783
0.353654
0.353529
0.353409
0.353295
0.353188
0.353087
0.352993
0.352908
0.352831
0.352763
0.352705
0.352656
0.352619
0.352592
0.352577
0.352573
0.352582
0.352603
0.352637
0.352684
0.352744
0.352818
0.352905
0.353006
0.353121
0.353249
0.353391
0.353547
0.353716
0.353899
0.354094
0.354302
0.354523
0.354757
0.355002
0.355259
0.355527
0.355806
0.356095
0.356394
0.356703
0.35702
0.357346
0.35768
0.358022
0.358371
0.358727
0.359088
0.359456
0.359829
0.360207
0.36059
0.360976
0.361367
0.361761
0.362158
0.362558
0.36296
0.363365
0.363771
0.364179
0.364589
0.364999
0.365409
0.36582
0.366231
0.366641
0.367051
0.367459
0.367866
0.368271
0.368673
0.369073
0.369469
0.369863
0.370252
0.370637
0.371018
0.371395
0.371766
0.372133
0.372494
0.37285
0.3732
0.373545
0.373884
0.374216
0.374543
0.374863
0.375177
0.375484
0.375784
0.376078
0.376364
0.376643
0.376915
0.377179
0.377435
0.377683
0.377923
0.378155
0.378379
0.378593
0.378799
0.378996
0.379184
0.379363
0.379532
0.379691
0.37984
0.37998
0.380109
0.380228
0.380336
0.380434
0.380521
0.380597
0.380662
0.380716
0.380759
0.38079
0.380809
0.380817
0.380813
0.380798
0.38077
0.38073
0.380679
0.380615
0.380539
0.380451
0.380351
0.380239
0.380115
0.379978
0.37983
0.379669
0.379497
0.379313
0.379117
0.378911
0.378693
0.378464
0.378224
0.377973
0.377712
0.37744
0.377157
0.376863
0.376559
0.376244
0.375917
0.375583
0.375225
0.374914
0.374457
0.359962
0.359887
0.359822
0.359756
0.359679
0.35959
0.359489
0.35938
0.359261
0.359135
0.359003
0.358864
0.35872
0.358573
0.358422
0.358269
0.358114
0.357958
0.357801
0.357645
0.357491
0.357337
0.357187
0.357039
0.356895
0.356755
0.35662
0.356491
0.356367
0.35625
0.35614
0.356038
0.355945
0.35586
0.355784
0.355718
0.355662
0.355617
0.355583
0.355561
0.35555
0.355552
0.355566
0.355593
0.355632
0.355685
0.355751
0.355831
0.355923
0.35603
0.35615
0.356283
0.356429
0.356589
0.356761
0.356947
0.357145
0.357355
0.357577
0.35781
0.358055
0.358311
0.358577
0.358853
0.359139
0.359434
0.359738
0.36005
0.36037
0.360697
0.361032
0.361373
0.36172
0.362073
0.362432
0.362795
0.363164
0.363536
0.363913
0.364293
0.364677
0.365064
0.365453
0.365846
0.36624
0.366636
0.367034
0.367434
0.367834
0.368235
0.368636
0.369037
0.369438
0.369838
0.370237
0.370634
0.371028
0.37142
0.37181
0.372196
0.372578
0.372957
0.373331
0.373701
0.374067
0.374427
0.374783
0.375133
0.375478
0.375818
0.376151
0.376479
0.376801
0.377116
0.377425
0.377727
0.378023
0.378311
0.378593
0.378867
0.379133
0.379392
0.379643
0.379885
0.38012
0.380346
0.380563
0.380772
0.380971
0.381161
0.381342
0.381513
0.381675
0.381826
0.381967
0.382098
0.382218
0.382328
0.382427
0.382514
0.382591
0.382656
0.38271
0.382752
0.382783
0.382802
0.382809
0.382803
0.382786
0.382756
0.382715
0.382661
0.382594
0.382515
0.382424
0.38232
0.382204
0.382076
0.381935
0.381782
0.381617
0.38144
0.381251
0.381051
0.380838
0.380615
0.38038
0.380135
0.379878
0.379611
0.379333
0.379044
0.378744
0.378434
0.378112
0.377779
0.377438
0.377073
0.376754
0.376285
0.363945
0.363868
0.363798
0.363723
0.363636
0.363537
0.363426
0.363305
0.363174
0.363036
0.36289
0.362737
0.36258
0.362418
0.362252
0.362083
0.361913
0.361741
0.361568
0.361396
0.361225
0.361055
0.360888
0.360723
0.360562
0.360405
0.360253
0.360106
0.359964
0.359829
0.359702
0.359581
0.359469
0.359365
0.35927
0.359184
0.359109
0.359043
0.358989
0.358946
0.358914
0.358894
0.358886
0.35889
0.358907
0.358937
0.35898
0.359036
0.359105
0.359187
0.359282
0.359391
0.359512
0.359647
0.359794
0.359954
0.360126
0.36031
0.360506
0.360714
0.360933
0.361163
0.361403
0.361654
0.361914
0.362184
0.362462
0.362749
0.363044
0.363347
0.363657
0.363975
0.364298
0.364628
0.364964
0.365305
0.365652
0.366003
0.366359
0.366719
0.367083
0.367451
0.367823
0.368197
0.368575
0.368955
0.369337
0.369722
0.370109
0.370497
0.370886
0.371275
0.371665
0.372055
0.372444
0.372832
0.373219
0.373604
0.373987
0.374367
0.374744
0.375117
0.375487
0.375853
0.376215
0.376572
0.376925
0.377273
0.377616
0.377954
0.378286
0.378613
0.378934
0.379249
0.379558
0.37986
0.380156
0.380445
0.380727
0.381002
0.381269
0.381529
0.381781
0.382025
0.382261
0.382488
0.382706
0.382916
0.383117
0.383308
0.38349
0.383663
0.383825
0.383977
0.384119
0.384251
0.384372
0.384482
0.384581
0.384668
0.384745
0.38481
0.384863
0.384904
0.384934
0.384951
0.384957
0.38495
0.38493
0.384899
0.384854
0.384797
0.384728
0.384646
0.384551
0.384444
0.384323
0.384191
0.384046
0.383888
0.383718
0.383536
0.383342
0.383136
0.382918
0.382689
0.382448
0.382196
0.381934
0.38166
0.381376
0.381081
0.380775
0.380458
0.380131
0.379791
0.379444
0.379072
0.378745
0.378266
0.368417
0.368338
0.36826
0.368175
0.368078
0.367967
0.367844
0.367709
0.367565
0.367411
0.36725
0.367082
0.366908
0.366729
0.366546
0.36636
0.366171
0.365981
0.365791
0.3656
0.36541
0.365222
0.365035
0.364851
0.364671
0.364495
0.364323
0.364156
0.363995
0.36384
0.363692
0.363551
0.363418
0.363293
0.363177
0.36307
0.362973
0.362885
0.362808
0.362742
0.362687
0.362644
0.362612
0.362592
0.362585
0.36259
0.362607
0.362637
0.36268
0.362736
0.362805
0.362886
0.36298
0.363087
0.363207
0.363338
0.363482
0.363638
0.363806
0.363985
0.364175
0.364376
0.364588
0.36481
0.365041
0.365282
0.365532
0.365791
0.366058
0.366333
0.366616
0.366906
0.367202
0.367506
0.367815
0.368131
0.368452
0.368778
0.36911
0.369446
0.369787
0.370132
0.370482
0.370835
0.371192
0.371552
0.371916
0.372282
0.372651
0.373022
0.373395
0.37377
0.374145
0.374521
0.374897
0.375273
0.375649
0.376023
0.376395
0.376766
0.377133
0.377498
0.377861
0.378219
0.378574
0.378926
0.379273
0.379616
0.379954
0.380287
0.380616
0.380939
0.381257
0.381569
0.381875
0.382175
0.382469
0.382756
0.383037
0.38331
0.383577
0.383835
0.384087
0.38433
0.384565
0.384792
0.385011
0.38522
0.385421
0.385612
0.385794
0.385966
0.386128
0.38628
0.386421
0.386553
0.386673
0.386782
0.386881
0.386968
0.387043
0.387107
0.387159
0.387199
0.387227
0.387242
0.387245
0.387236
0.387214
0.38718
0.387132
0.387072
0.386999
0.386914
0.386815
0.386704
0.386579
0.386442
0.386292
0.38613
0.385955
0.385767
0.385567
0.385356
0.385132
0.384897
0.384651
0.384393
0.384124
0.383844
0.383554
0.383253
0.382941
0.382618
0.382285
0.381938
0.381586
0.381207
0.380873
0.380385
0.373404
0.373321
0.373234
0.373138
0.373028
0.372904
0.372766
0.372616
0.372455
0.372284
0.372105
0.371918
0.371725
0.371526
0.371323
0.371117
0.370907
0.370697
0.370485
0.370273
0.370062
0.369852
0.369644
0.369438
0.369236
0.369038
0.368845
0.368656
0.368473
0.368296
0.368125
0.367962
0.367806
0.367659
0.367519
0.367389
0.367268
0.367157
0.367055
0.366965
0.366885
0.366816
0.366758
0.366713
0.366679
0.366657
0.366647
0.366649
0.366664
0.366691
0.366731
0.366783
0.366848
0.366924
0.367014
0.367115
0.367228
0.367353
0.367489
0.367637
0.367795
0.367965
0.368144
0.368334
0.368534
0.368743
0.368961
0.369188
0.369423
0.369667
0.369918
0.370177
0.370443
0.370716
0.370996
0.371281
0.371573
0.371871
0.372174
0.372482
0.372796
0.373115
0.373438
0.373766
0.374098
0.374435
0.374775
0.375119
0.375466
0.375816
0.376169
0.376524
0.376881
0.377239
0.377598
0.377958
0.378318
0.378677
0.379035
0.379392
0.379747
0.3801
0.38045
0.380798
0.381143
0.381484
0.381822
0.382156
0.382487
0.382812
0.383134
0.38345
0.383762
0.384068
0.384369
0.384664
0.384953
0.385236
0.385513
0.385782
0.386045
0.386301
0.386549
0.38679
0.387023
0.387247
0.387463
0.38767
0.387869
0.388058
0.388238
0.388409
0.388569
0.388719
0.388859
0.388989
0.389107
0.389215
0.389311
0.389396
0.38947
0.389532
0.389581
0.389619
0.389644
0.389657
0.389658
0.389646
0.389621
0.389583
0.389532
0.389468
0.389392
0.389302
0.389199
0.389083
0.388954
0.388813
0.388658
0.38849
0.38831
0.388117
0.387912
0.387695
0.387465
0.387224
0.386972
0.386708
0.386433
0.386147
0.385851
0.385543
0.385226
0.384897
0.384557
0.384205
0.383847
0.383462
0.383122
0.382627
0.378935
0.378847
0.37875
0.37864
0.378515
0.378374
0.378218
0.378049
0.377868
0.377677
0.377476
0.377267
0.37705
0.376828
0.376601
0.376371
0.376137
0.375902
0.375666
0.37543
0.375194
0.37496
0.374728
0.374498
0.374272
0.374049
0.373831
0.373619
0.373411
0.37321
0.373015
0.372827
0.372646
0.372474
0.37231
0.372154
0.372007
0.37187
0.371743
0.371626
0.371519
0.371423
0.371337
0.371263
0.371201
0.37115
0.371111
0.371083
0.371068
0.371064
0.371072
0.371093
0.371125
0.37117
0.371226
0.371294
0.371373
0.371464
0.371566
0.371679
0.371803
0.371937
0.372082
0.372236
0.3724
0.372574
0.372757
0.372948
0.373149
0.373357
0.373573
0.373797
0.374028
0.374267
0.374512
0.374764
0.375023
0.375287
0.375558
0.375834
0.376116
0.376404
0.376697
0.376995
0.377298
0.377606
0.377918
0.378235
0.378556
0.378881
0.379209
0.37954
0.379873
0.380209
0.380546
0.380886
0.381225
0.381565
0.381904
0.382243
0.382581
0.382917
0.383252
0.383585
0.383915
0.384243
0.384568
0.38489
0.385208
0.385523
0.385834
0.38614
0.386442
0.386739
0.387031
0.387318
0.3876
0.387875
0.388145
0.388408
0.388665
0.388915
0.389157
0.389392
0.38962
0.38984
0.390051
0.390254
0.390449
0.390634
0.39081
0.390977
0.391134
0.391281
0.391417
0.391544
0.391659
0.391764
0.391857
0.391939
0.392009
0.392068
0.392114
0.392149
0.392171
0.39218
0.392177
0.392162
0.392133
0.392091
0.392037
0.391969
0.391888
0.391794
0.391687
0.391566
0.391432
0.391286
0.391126
0.390953
0.390767
0.390569
0.390358
0.390135
0.3899
0.389653
0.389395
0.389125
0.388844
0.388552
0.38825
0.387937
0.387613
0.387278
0.386933
0.386576
0.386212
0.385823
0.385476
0.384976
0.385042
0.384946
0.384836
0.38471
0.384566
0.384405
0.384227
0.384035
0.383829
0.383611
0.383384
0.383147
0.382903
0.382653
0.382397
0.382138
0.381876
0.381613
0.381348
0.381084
0.38082
0.380558
0.380299
0.380042
0.379788
0.379539
0.379294
0.379054
0.37882
0.378592
0.378371
0.378156
0.377949
0.377749
0.377558
0.377375
0.3772
0.377035
0.37688
0.376734
0.376599
0.376473
0.376358
0.376254
0.376161
0.376079
0.376008
0.375948
0.3759
0.375863
0.375838
0.375824
0.375821
0.37583
0.375851
0.375882
0.375925
0.375979
0.376043
0.376119
0.376204
0.3763
0.376406
0.376522
0.376647
0.376781
0.376925
0.377077
0.377238
0.377407
0.377584
0.377769
0.377962
0.378161
0.378368
0.378582
0.378803
0.37903
0.379264
0.379504
0.37975
0.380001
0.380259
0.380523
0.380792
0.381067
0.381347
0.381631
0.381921
0.382215
0.382514
0.382815
0.38312
0.383429
0.383741
0.384054
0.384368
0.384683
0.384999
0.385316
0.385632
0.385947
0.386262
0.386575
0.386887
0.387196
0.387504
0.387809
0.388112
0.388411
0.388707
0.389
0.389289
0.389573
0.389853
0.390128
0.390398
0.390663
0.390923
0.391176
0.391423
0.391664
0.391899
0.392126
0.392346
0.392558
0.392763
0.392959
0.393147
0.393326
0.393496
0.393657
0.393809
0.39395
0.394082
0.394203
0.394314
0.394413
0.394502
0.394579
0.394645
0.3947
0.394742
0.394772
0.39479
0.394795
0.394787
0.394767
0.394734
0.394688
0.394629
0.394557
0.394471
0.394372
0.39426
0.394135
0.393996
0.393844
0.393679
0.393501
0.39331
0.393106
0.39289
0.392662
0.392421
0.392168
0.391904
0.391628
0.391341
0.391043
0.390735
0.390416
0.390087
0.389747
0.389397
0.389035
0.388666
0.388272
0.38792
0.387416
0.39176
0.391654
0.391527
0.391381
0.391214
0.391027
0.39082
0.390598
0.39036
0.39011
0.389848
0.389578
0.389299
0.389015
0.388725
0.388432
0.388136
0.387839
0.387542
0.387245
0.38695
0.386656
0.386365
0.386078
0.385794
0.385514
0.38524
0.384971
0.384707
0.38445
0.384199
0.383956
0.383719
0.383491
0.38327
0.383057
0.382853