/*--------------------------------*- C++ -*----------------------------------*\
| =========                 |                                                 |
| \\      /  F ield         | OpenFOAM: The Open Source CFD Toolbox           |
|  \\    /   O peration     | Version:  4.1                                   |
|   \\  /    A nd           | Web:      www.OpenFOAM.org                      |
|    \\/     M anipulation  |                                                 |
\*---------------------------------------------------------------------------*/
FoamFile
{
    version     2.0;
    format      ascii;
    class       volScalarField;
    location    "0.06";
    object      T;
}
// * * * * * * * * * * * * * * * * * * * * * * * * * * * * * * * * * * * * * //

dimensions      [0 0 0 1 0 0 0];

internalField   nonuniform List<scalar> 
12225
(
1.11552
1.23317
1.29917
1.34126
1.36974
1.38851
1.40119
1.41004
1.41642
1.42116
1.42479
1.42763
1.4299
1.43177
1.4333
1.43469
1.43581
1.43518
0.860947
0.707839
0.632408
0.594821
0.576427
0.569644
0.569414
0.572758
0.577971
0.584077
0.590513
0.596954
0.603214
0.609181
0.61481
0.619994
0.624958
0.628865
1.03458
1.08006
1.10414
1.11423
1.11556
1.11189
1.10559
1.09802
1.08996
1.08185
1.07398
1.06647
1.05942
1.05284
1.04677
1.04114
1.0362
1.0315
1.00165
0.998855
0.992981
0.988432
0.986044
0.98539
0.98593
0.9872
0.988859
0.990683
0.992533
0.994323
0.995998
0.997539
0.998939
1.00018
1.0013
1.00234
1.00023
1.00039
1.00026
1.00043
1.00067
1.0008
1.00084
1.0008
1.00072
1.00062
1.00051
1.00042
1.00033
1.00027
1.00023
1.00019
1.00021
1.00021
0.999584
0.999244
0.998899
0.998714
0.99862
0.998535
0.998453
0.99839
0.998342
0.998302
0.998271
0.998244
0.99822
0.998204
0.998189
0.998174
0.998175
0.998153
0.999929
1.00011
1.00016
1.00019
1.00023
1.00025
1.00026
1.00026
1.00026
1.00026
1.00026
1.00025
1.00024
1.00023
1.00022
1.00021
1.00021
1.00019
0.999971
1.00007
1.00006
1.00002
1.00001
1.00001
1.00001
1
1
1
1
1.00001
1.00002
1.00002
1.00002
1.00003
1.00003
1.00003
0.999979
1.00004
1.00003
1.00002
1.00002
1.00002
1.00002
1.00002
1.00002
1.00003
1.00003
1.00003
1.00003
1.00003
1.00003
1.00003
1.00003
1.00003
0.999978
1.00002
1.00001
0.999998
0.999998
1
0.999999
0.999997
0.999996
0.999997
0.999995
0.999996
1
0.999999
0.999995
1
0.999995
0.999997
0.999985
1.00001
1.00001
1
1
0.999997
0.999997
0.999997
1
1
1
0.999998
0.999997
1
1
1
0.999997
1
0.999988
1.00001
1.00001
0.999999
0.999997
0.999999
0.999998
0.999999
0.999998
0.999996
0.999996
0.999997
0.999999
0.999999
1
1
0.999996
1
0.999989
1.00001
1.00001
1
0.999999
0.999999
1
1
0.999999
0.999998
1
0.999998
0.999999
1
0.999999
1
0.999993
0.999997
0.999991
1
1.00001
1.00001
1
1
0.999997
0.999998
0.999999
0.999998
0.999996
0.999998
0.999997
0.999997
0.999997
0.999997
0.999994
1
0.999993
1
1.00001
1.00001
1
1
0.999998
0.999999
0.999999
0.999999
1
0.999999
0.999999
1
0.999995
0.999998
0.999992
0.999998
0.999994
1
1.00001
1
1
1
1
0.999999
0.999999
0.999997
0.999997
1
1
1
0.999999
0.999998
0.999993
0.999999
0.999993
1
1
1
1
1
1
1
0.999999
1
1
0.999999
0.999998
0.999999
1
1
0.999997
0.999999
0.999995
1
1
1.00001
1.00001
1.00001
1
1
1
1
1
1
1.00001
1.00001
1
1
0.999997
1
0.999995
1
1
1
1
1
1.00001
1
0.999999
1
1
1
0.999997
0.999995
0.999999
0.999997
0.999991
0.999995
0.999992
1
1
1
1
1
1.00001
1.00001
1.00001
1
1.00001
1.00001
1.00001
1.00001
1.00001
1.00001
1.00001
1.00002
0.999991
0.999999
1.00001
1
0.999996
0.999991
0.999991
0.999988
0.999986
0.999985
0.999981
0.999979
0.999975
0.999972
0.999972
0.999972
0.999964
0.999966
0.999988
1
1.00001
1.00001
1.00002
1.00002
1.00003
1.00004
1.00004
1.00005
1.00006
1.00006
1.00007
1.00007
1.00008
1.00008
1.00008
1.00009
0.999982
1
1
0.999974
0.999943
0.999921
0.9999
0.999878
0.99986
0.999842
0.999828
0.999815
0.999802
0.999795
0.999786
0.999779
0.99977
0.999767
0.999965
1.00007
1.00018
1.00024
1.0003
1.00037
1.00043
1.00049
1.00054
1.00058
1.00062
1.00065
1.00067
1.00069
1.00071
1.00072
1.00073
1.00074
0.999753
0.999568
0.999366
0.999131
0.998913
0.998704
0.998509
0.998342
0.998201
0.998088
0.998002
0.997936
0.997889
0.997856
0.997838
0.997829
0.997822
0.997814
0.999992
1.00043
1.00095
1.00167
1.00247
1.00316
1.00368
1.00405
1.00429
1.00442
1.00447
1.00446
1.0044
1.00432
1.00421
1.00409
1.00396
1.00386
0.999945
0.996247
0.990161
0.98452
0.980273
0.977358
0.975527
0.97452
0.974115
0.974128
0.974432
0.974931
0.975556
0.976259
0.977006
0.977763
0.978549
0.979195
1.0214
1.05634
1.0798
1.09471
1.10362
1.10848
1.11069
1.11118
1.11056
1.10922
1.10743
1.10537
1.10317
1.1009
1.09862
1.09638
1.09417
1.09224
0.922802
0.82784
0.774466
0.743959
0.725618
0.714657
0.708441
0.705217
0.70388
0.70374
0.704359
0.705454
0.70684
0.708395
0.710039
0.711701
0.713398
0.714943
1.06291
1.12901
1.16726
1.19166
1.20826
1.21975
1.22781
1.23361
1.2379
1.24113
1.24365
1.24564
1.24725
1.24858
1.24971
1.25063
1.25155
1.25214
-1.00646e-19
-1.38065e-20
-3.37363e-20
-2.62378e-20
-9.54257e-22
1.60239e-20
3.21213e-20
4.57347e-20
5.20459e-20
5.14054e-20
4.65196e-20
3.97003e-20
3.25774e-20
2.5999e-20
2.02973e-20
1.55236e-20
1.15064e-20
8.02102e-21
6.42698e-21
1.19969e-20
2.15756e-20
-3.02231e-20
-3.01e-19
-6.81784e-19
4.35187e-19
7.22076e-18
2.16228e-17
2.26333e-17
-7.00909e-17
-3.99731e-16
-1.00437e-15
-1.27577e-15
1.00856e-15
1.05108e-14
3.32048e-14
6.99299e-14
1.00483e-13
5.59999e-14
-2.15875e-13
-9.7566e-13
-2.57139e-12
-5.31973e-12
-9.2274e-12
-1.35035e-11
-1.58576e-11
-1.16613e-11
6.83187e-12
5.08763e-11
1.34774e-10
2.74019e-10
4.81521e-10
7.61532e-10
1.1012e-09
1.46015e-09
1.75898e-09
1.86839e-09
1.60094e-09
7.08373e-10
-1.11283e-09
-4.20463e-09
-8.91707e-09
-1.55627e-08
-2.43558e-08
-3.53374e-08
-4.82897e-08
-6.26445e-08
-7.73933e-08
-9.10063e-08
-1.01372e-07
-1.05767e-07
-1.00865e-07
-8.27933e-08
-4.72565e-08
1.02883e-08
9.43816e-08
2.09249e-07
3.58426e-07
5.44336e-07
7.67815e-07
1.02763e-06
1.31999e-06
1.63807e-06
1.97155e-06
2.30631e-06
2.6241e-06
2.90242e-06
3.11449e-06
3.22936e-06
3.21227e-06
3.02506e-06
2.62689e-06
1.97505e-06
1.02603e-06
-2.63251e-07
-1.93405e-06
-4.02421e-06
-6.56639e-06
-9.58606e-06
-1.30992e-05
-1.71093e-05
-2.16019e-05
-2.65296e-05
-3.17633e-05
-3.72197e-05
-4.27848e-05
-4.83313e-05
-5.37181e-05
-5.87936e-05
-6.3399e-05
-6.73719e-05
-7.05499e-05
-7.27744e-05
-7.38944e-05
-7.37705e-05
-7.22769e-05
-6.93057e-05
-6.47683e-05
-5.85978e-05
-5.07496e-05
-4.12029e-05
-2.996e-05
-1.70465e-05
-2.50991e-06
1.3581e-05
3.11383e-05
5.00565e-05
7.02143e-05
9.14774e-05
0.0001137
0.000136729
0.000160404
0.00018456
0.000209026
0.000233632
0.000258202
0.000282563
0.000306544
0.000329978
0.0003527
0.000374547
0.000395357
0.000414972
0.00043325
0.000450056
0.000465262
0.000478737
0.00049037
0.000500082
0.00050779
0.000513408
0.000516906
0.0005183
0.000517484
0.000514487
0.000509531
0.00050241
0.000493209
0.000482182
0.000469129
0.000454621
0.000438116
0.000419375
0.000399676
0.000379077
0.000352783
0.000320683
0.000288541
0.000257869
0.000228722
0.000201039
0.000174758
0.000149796
0.000126043
0.000103297
8.13231e-05
5.95686e-05
3.76859e-05
1.47036e-05
-1.0008e-05
-2.38687e-05
1.81321e-18
1.0325e-19
1.80864e-19
-1.85297e-19
-5.79219e-19
-9.06923e-19
-1.09274e-18
-1.1376e-18
-1.08243e-18
-9.71822e-19
-8.39855e-19
-7.07728e-19
-5.86341e-19
-4.79837e-19
-3.8875e-19
-3.12043e-19
-2.47852e-19
-1.92962e-19
-1.44546e-19
-1.15059e-19
-1.57942e-19
-3.08112e-19
-1.96818e-19
1.6424e-18
7.14648e-18
1.21864e-17
-9.96152e-18
-1.2268e-16
-3.80003e-16
-6.06153e-16
8.96641e-17
3.86066e-15
1.37694e-14
3.03898e-14
4.22988e-14
8.35822e-15
-1.65025e-13
-6.36623e-13
-1.59952e-12
-3.15226e-12
-5.00556e-12
-5.97162e-12
-3.24313e-12
8.40931e-12
3.72063e-11
9.41511e-11
1.91279e-10
3.37476e-10
5.31027e-10
7.4843e-10
9.29688e-10
9.61431e-10
6.60677e-10
-2.36374e-10
-2.07452e-09
-5.26162e-09
-1.02251e-08
-1.73358e-08
-2.67955e-08
-3.84855e-08
-5.17832e-08
-6.53547e-08
-7.69445e-08
-8.31862e-08
-7.94689e-08
-5.98962e-08
-1.73795e-08
5.60962e-08
1.68996e-07
3.29525e-07
5.44673e-07
8.19015e-07
1.15332e-06
1.54298e-06
1.97639e-06
2.43334e-06
2.88354e-06
3.28551e-06
3.58586e-06
3.71917e-06
3.60866e-06
3.1677e-06
2.30233e-06
9.14746e-07
-1.09209e-06
-3.80887e-06
-7.31348e-06
-1.16637e-05
-1.68897e-05
-2.29854e-05
-2.99012e-05
-3.75356e-05
-4.57285e-05
-5.42552e-05
-6.28214e-05
-7.10603e-05
-7.85309e-05
-8.47186e-05
-8.90385e-05
-9.08414e-05
-8.94252e-05
-8.40618e-05
-7.41329e-05
-5.90377e-05
-3.82331e-05
-1.12534e-05
2.22721e-05
6.26023e-05
0.00010987
0.000164071
0.000225055
0.00029252
0.000366011
0.000444926
0.000528514
0.000615894
0.000706062
0.000797914
0.000890259
0.000981847
0.0010714
0.00115762
0.00123926
0.00131507
0.00138394
0.00144481
0.00149679
0.00153914
0.00157129
0.00159287
0.00160373
0.00160392
0.00159374
0.00157367
0.00154443
0.00150692
0.0014622
0.00141151
0.00135619
0.00129766
0.00123742
0.00117701
0.00111787
0.00106138
0.00100884
0.000961479
0.000920376
0.000886305
0.000859859
0.000841538
0.000831539
0.000829745
0.000836302
0.000850759
0.000871864
0.00089954
0.000933235
0.000971168
0.00101305
0.00105823
0.00110375
0.00115059
0.00119722
0.00124031
0.00128154
0.00131872
0.00134738
0.00136681
0.00137701
0.00137803
0.00136989
0.00135257
0.00132594
0.00128939
0.00124194
0.00117998
0.0011007
0.000982539
0.000840307
0.000454983
1.03015e-17
8.26587e-21
3.72337e-18
9.19915e-18
1.25498e-17
1.37434e-17
1.3546e-17
1.2591e-17
1.12861e-17
9.87565e-18
8.5025e-18
7.24118e-18
6.12236e-18
5.15037e-18
4.31562e-18
3.6028e-18
2.99654e-18
2.48427e-18
2.04817e-18
1.63611e-18
1.15856e-18
7.2269e-19
1.35187e-18
5.46617e-18
1.34703e-17
1.00404e-17
-5.85773e-17
-2.78814e-16
-6.29083e-16
-5.55322e-16
1.72197e-15
9.50456e-15
2.55557e-14
4.42063e-14
3.4042e-14
-8.80488e-14
-4.78043e-13
-1.34466e-12
-2.8213e-12
-4.6394e-12
-5.52027e-12
-2.27682e-12
1.12075e-11
4.46613e-11
1.10922e-10
2.23e-10
3.87214e-10
5.91024e-10
7.84849e-10
8.58707e-10
6.16842e-10
-2.43347e-10
-2.13822e-09
-5.57749e-09
-1.11011e-08
-1.91585e-08
-2.99176e-08
-4.29995e-08
-5.71462e-08
-6.98453e-08
-7.69523e-08
-7.23794e-08
-4.79312e-08
6.61254e-09
1.03058e-07
2.53899e-07
4.70877e-07
7.62949e-07
1.13367e-06
1.57804e-06
2.07901e-06
2.60385e-06
3.10071e-06
3.4958e-06
3.6917e-06
3.5671e-06
2.97876e-06
1.76596e-06
-2.4225e-07
-3.21665e-06
-7.31441e-06
-1.26627e-05
-1.93402e-05
-2.73561e-05
-3.66301e-05
-4.69708e-05
-5.80578e-05
-6.94269e-05
-8.046e-05
-9.03812e-05
-9.82617e-05
-0.000103032
-0.000103506
-9.841e-05
-8.6426e-05
-6.624e-05
-3.65979e-05
3.63211e-06
5.53928e-05
0.000119363
0.000195856
0.000284602
0.000385105
0.000496567
0.000617792
0.000747225
0.000882958
0.00102276
0.00116413
0.00130432
0.00144039
0.00156929
0.00168786
0.00179294
0.00188139
0.00195016
0.0019963
0.00201706
0.00200986
0.00197238
0.00190252
0.00179848
0.00165874
0.00148209
0.00126763
0.00101482
0.000723457
0.000393694
2.60733e-05
-0.000378473
-0.000818626
-0.00129263
-0.00179829
-0.00233294
-0.00289341
-0.00347607
-0.00407683
-0.0046912
-0.00531438
-0.00594113
-0.00656583
-0.00718256
-0.00778527
-0.00836797
-0.00892471
-0.00944935
-0.00993619
-0.0103802
-0.0107762
-0.0111192
-0.011406
-0.0116353
-0.0118013
-0.0119015
-0.0119415
-0.0119165
-0.0118231
-0.0116693
-0.0114511
-0.0111674
-0.0108284
-0.0104259
-0.00996273
-0.00946088
-0.00890962
-0.00830006
-0.00765457
-0.00699295
-0.00632701
-0.00566373
-0.00500738
-0.00436042
-0.00372357
-0.003095
-0.00247061
-0.00184059
-0.00119447
-0.000511318
0.000202537
0.00100489
-6.02797e-18
-8.81017e-18
-7.62851e-17
-1.12108e-16
-1.18256e-16
-1.12029e-16
-1.01591e-16
-9.01916e-17
-7.9149e-17
-6.8951e-17
-5.97726e-17
-5.16472e-17
-4.45375e-17
-3.83656e-17
-3.30325e-17
-2.84315e-17
-2.44567e-17
-2.101e-17
-1.80184e-17
-1.54705e-17
-1.3407e-17
-1.16025e-17
-8.67296e-18
-1.59585e-18
9.84498e-18
6.06786e-18
-7.96941e-17
-3.52786e-16
-7.81888e-16
-6.75317e-16
2.16666e-15
1.17788e-14
3.13438e-14
5.30868e-14
3.63702e-14
-1.24157e-13
-6.20692e-13
-1.69266e-12
-3.43194e-12
-5.31032e-12
-5.33071e-12
1.1619e-12
2.26738e-11
7.1938e-11
1.64032e-10
3.10225e-10
5.05308e-10
7.0671e-10
8.05436e-10
5.92155e-10
-2.73318e-10
-2.27482e-09
-6.01439e-09
-1.2123e-08
-2.10815e-08
-3.29293e-08
-4.68538e-08
-6.06752e-08
-7.02724e-08
-6.90418e-08
-4.75188e-08
6.66238e-09
1.08268e-07
2.7321e-07
5.16344e-07
8.48188e-07
1.27055e-06
1.77114e-06
2.31755e-06
2.85104e-06
3.28088e-06
3.48026e-06
3.2847e-06
2.49425e-06
8.80474e-07
-1.80071e-06
-5.78988e-06
-1.12982e-05
-1.84757e-05
-2.7374e-05
-3.7906e-05
-4.98055e-05
-6.25885e-05
-7.55217e-05
-8.76015e-05
-9.75466e-05
-0.000103811
-0.000104615
-9.8005e-05
-8.19326e-05
-5.43579e-05
-1.33766e-05
4.26404e-05
0.000114894
0.000204004
0.000309855
0.000431463
0.000566858
0.000713002
0.000865762
0.00101997
0.00116984
0.00130892
0.00143006
0.00152567
0.00158789
0.00160879
0.00158062
0.00149599
0.00134816
0.00113124
0.000840367
0.000471945
2.37486e-05
-0.000504943
-0.00111327
-0.00179878
-0.00255743
-0.00338369
-0.00427065
-0.00521022
-0.0061933
-0.00721007
-0.00825022
-0.00930326
-0.0103587
-0.0114066
-0.0124375
-0.0134431
-0.0144159
-0.0153502
-0.0162417
-0.0170875
-0.0178865
-0.0186389
-0.0193466
-0.0200127
-0.0206414
-0.021238
-0.0218082
-0.0223583
-0.022895
-0.023425
-0.0239538
-0.024486
-0.0250255
-0.0255762
-0.02614
-0.0267166
-0.0273041
-0.0279014
-0.0285063
-0.0291116
-0.0297076
-0.030297
-0.0308664
-0.0314023
-0.0319049
-0.0323559
-0.0327446
-0.033062
-0.0332976
-0.0334415
-0.0334855
-0.0334207
-0.0332313
-0.0329105
-0.0324604
-0.0318846
-0.0311863
-0.0303675
-0.0294277
-0.028363
-0.027162
-0.0258061
-0.0242432
-0.0224354
-0.0201283
-0.0176247
-0.0125327
-4.37283e-16
-1.66602e-17
5.76231e-16
7.33687e-16
7.09378e-16
6.39073e-16
5.63307e-16
4.93186e-16
4.3138e-16
3.77529e-16
3.30661e-16
2.89819e-16
2.54217e-16
2.23202e-16
1.96203e-16
1.72702e-16
1.52223e-16
1.34333e-16
1.18632e-16
1.04726e-16
9.22168e-17
8.09638e-17
7.1946e-17
6.81004e-17
7.12026e-17
6.66413e-17
-6.59633e-18
-2.65613e-16
-7.51214e-16
-9.45637e-16
1.14666e-15
9.7187e-15
2.9345e-14
5.59225e-14
5.46721e-14
-7.53658e-14
-5.32744e-13
-1.58657e-12
-3.38483e-12
-5.44786e-12
-5.71255e-12
8.53437e-13
2.367e-11
7.69502e-11
1.77189e-10
3.35004e-10
5.38271e-10
7.24322e-10
7.41733e-10
3.07489e-10
-1.02682e-09
-3.87644e-09
-8.9594e-09
-1.69275e-08
-2.80538e-08
-4.17506e-08
-5.59212e-08
-6.6196e-08
-6.51667e-08
-4.18083e-08
1.86451e-08
1.34041e-07
3.23514e-07
6.04225e-07
9.86411e-07
1.4667e-06
2.01995e-06
2.59018e-06
3.08161e-06
3.35126e-06
3.20479e-06
2.39779e-06
6.44446e-07
-2.36447e-06
-6.93288e-06
-1.33193e-05
-2.16861e-05
-3.20398e-05
-4.41658e-05
-5.75629e-05
-7.13835e-05
-8.43865e-05
-9.49125e-05
-0.000100885
-9.98524e-05
-8.90618e-05
-6.55868e-05
-2.64889e-05
3.09773e-05
0.000109129
0.000209599
0.000333074
0.000479042
0.000645564
0.000829083
0.0010243
0.00122409
0.00141953
0.00160001
0.00175331
0.00186589
0.00192335
0.00191042
0.00181139
0.00161047
0.00129223
0.000842037
0.000246528
-0.000505901
-0.00142462
-0.00251627
-0.00378432
-0.00522868
-0.00684526
-0.00862574
-0.0105573
-0.0126225
-0.0147993
-0.0170609
-0.0193765
-0.0217111
-0.0240265
-0.0262814
-0.0284328
-0.0304363
-0.0322473
-0.0338221
-0.035119
-0.0360993
-0.0367284
-0.0369771
-0.0368229
-0.0362499
-0.0352501
-0.0338243
-0.0319815
-0.0297404
-0.027128
-0.0241797
-0.0209373
-0.01745
-0.0137732
-0.00996816
-0.00609891
-0.00223126
0.00156852
0.00523626
0.00871251
0.0119414
0.0148605
0.0174258
0.0196079
0.0213607
0.0226684
0.023506
0.0238669
0.0237586
0.0231818
0.0221584
0.0206988
0.0188328
0.0165902
0.0139988
0.011123
0.00799483
0.00464156
0.00113179
-0.00246064
-0.00606972
-0.00964048
-0.0131291
-0.0165012
-0.0197309
-0.0227991
-0.025696
-0.0283988
-0.0309196
-0.0330551
-0.0350475
-0.0352236
6.80172e-15
1.20862e-15
-2.32504e-15
-3.2485e-15
-3.21365e-15
-2.92425e-15
-2.59469e-15
-2.2852e-15
-2.01281e-15
-1.77718e-15
-1.57342e-15
-1.39625e-15
-1.24139e-15
-1.1056e-15
-9.864e-16
-8.81709e-16
-7.89737e-16
-7.08862e-16
-6.37588e-16
-5.7457e-16
-5.18657e-16
-4.68778e-16
-4.23336e-16
-3.7913e-16
-3.3214e-16
-2.86981e-16
-2.82637e-16
-4.21078e-16
-8.17291e-16
-1.28193e-15
-5.29762e-16
4.88154e-15
2.0345e-14
4.77568e-14
6.84885e-14
1.00458e-14
-2.9546e-13
-1.12022e-12
-2.72079e-12
-4.93016e-12
-6.28006e-12
-2.57842e-12
1.47808e-11
5.98009e-11
1.50149e-10
2.99539e-10
5.00345e-10
6.93096e-10
7.22525e-10
2.86224e-10
-1.10772e-09
-4.14427e-09
-9.62222e-09
-1.82383e-08
-3.01807e-08
-4.4497e-08
-5.82448e-08
-6.55046e-08
-5.64342e-08
-1.66632e-08
7.25674e-08
2.33017e-07
4.86293e-07
8.48498e-07
1.32244e-06
1.88756e-06
2.48817e-06
3.02136e-06
3.32634e-06
3.17799e-06
2.28756e-06
3.13575e-07
-3.11389e-06
-8.35341e-06
-1.56961e-05
-2.5294e-05
-3.70762e-05
-5.06583e-05
-6.52529e-05
-7.95914e-05
-9.18688e-05
-9.97215e-05
-0.000100249
-9.00933e-05
-6.55661e-05
-2.28443e-05
4.17883e-05
0.000131656
0.000249378
0.000396546
0.000573419
0.000778643
0.00100903
0.00125942
0.00152255
0.00178913
0.00204786
0.00228563
0.00248765
0.00263755
0.00271687
0.00270644
0.00258602
0.00233481
0.00193175
0.00135597
0.000587262
-0.000393453
-0.00160354
-0.00305803
-0.00476897
-0.00674464
-0.00898883
-0.0115
-0.0142704
-0.0172855
-0.0205228
-0.0239514
-0.0275315
-0.0312137
-0.034939
-0.0386391
-0.0422365
-0.0456451
-0.0487718
-0.0515177
-0.0537796
-0.0554526
-0.0564324
-0.0566177
-0.0559133
-0.0542326
-0.0515016
-0.0476604
-0.0426659
-0.0364946
-0.0291443
-0.0206357
-0.0110126
-0.000341479
0.0112905
0.0237764
0.0369907
0.0507899
0.0650136
0.0794821
0.0940278
0.10848
0.122677
0.136409
0.149519
0.161884
0.173327
0.183738
0.193009
0.201049
0.207794
0.213188
0.217202
0.219817
0.221036
0.220873
0.219352
0.216539
0.212481
0.207219
0.200843
0.193469
0.185213
0.176184
0.166471
0.156139
0.145223
0.13371
0.121543
0.108537
0.0945669
0.0788148
0.0628207
0.0378463
-5.46755e-14
-1.09615e-14
5.10691e-15
1.11667e-14
1.23623e-14
1.18595e-14
1.08467e-14
9.73478e-15
8.68669e-15
7.75028e-15
6.92836e-15
6.20766e-15
5.57308e-15
5.01212e-15
4.51518e-15
4.0747e-15
3.68439e-15
3.33879e-15
3.03287e-15
2.76192e-15
2.52141e-15
2.307e-15
2.1149e-15
1.94283e-15
1.79077e-15
1.65775e-15
1.52649e-15
1.33284e-15
9.52926e-16
3.2774e-16
-5.36882e-17
1.82453e-15
1.04212e-14
3.11249e-14
6.11298e-14
6.57391e-14
-6.21216e-14
-5.40982e-13
-1.67517e-12
-3.63237e-12
-5.82831e-12
-5.73549e-12
2.85375e-12
3.15193e-11
9.72667e-11
2.17988e-10
3.99077e-10
6.06578e-10
7.24166e-10
4.96903e-10
-5.24622e-10
-3.01058e-09
-7.80099e-09
-1.57135e-08
-2.71395e-08
-4.13729e-08
-5.56602e-08
-6.4045e-08
-5.62056e-08
-1.66349e-08
7.5326e-08
2.43967e-07
5.13515e-07
9.01687e-07
1.41017e-06
2.01222e-06
2.63824e-06
3.16112e-06
3.38387e-06
3.03318e-06
1.76271e-06
-8.29699e-07
-5.16744e-06
-1.1641e-05
-2.05344e-05
-3.19341e-05
-4.56273e-05
-6.09969e-05
-7.69266e-05
-9.17265e-05
-0.000103095
-0.00010813
-0.000103388
-8.50191e-05
-4.89417e-05
8.91884e-06
9.23614e-05
0.000204623
0.000348095
0.000524067
0.000732512
0.000971928
0.00123924
0.00152977
0.00183724
0.00215384
0.00247028
0.00277591
0.00305881
0.00330606
0.00350423
0.00363736
0.00368829
0.00363846
0.00346803
0.00315586
0.00267953
0.00201555
0.00113954
2.65574e-05
-0.00134836
-0.00300951
-0.00497956
-0.00727841
-0.00992176
-0.0129194
-0.0162736
-0.0199765
-0.0240087
-0.0283365
-0.0329104
-0.0376632
-0.0425081
-0.0473393
-0.0520307
-0.056437
-0.0603959
-0.0637305
-0.066252
-0.0677638
-0.068068
-0.0669698
-0.0642841
-0.0598414
-0.0534944
-0.0451242
-0.0346454
-0.0220091
-0.00720748
0.00972211
0.0286995
0.0496044
0.0722803
0.0965338
0.122144
0.148824
0.176306
0.204301
0.232541
0.260677
0.288419
0.315489
0.341617
0.366554
0.390078
0.411983
0.432098
0.450283
0.466425
0.48044
0.492272
0.501889
0.509283
0.514475
0.5175
0.518394
0.517224
0.514081
0.509066
0.502274
0.493784
0.483644
0.471863
0.458365
0.443029
0.425429
0.405467
0.380961
0.356071
0.310095
2.96904e-13
6.33568e-14
-6.12965e-16
-3.3287e-14
-4.43111e-14
-4.58938e-14
-4.37879e-14
-4.03166e-14
-3.65612e-14
-3.29769e-14
-2.97257e-14
-2.68269e-14
-2.42476e-14
-2.19471e-14
-1.98911e-14
-1.8052e-14
-1.64079e-14
-1.49397e-14
-1.36307e-14
-1.24653e-14
-1.14288e-14
-1.0507e-14
-9.68615e-15
-8.95227e-15
-8.29078e-15
-7.68655e-15
-7.12968e-15
-6.63407e-15
-6.26743e-15
-6.1471e-15
-6.26414e-15
-5.91498e-15
-2.67617e-15
8.28938e-15
3.17946e-14
6.13919e-14
5.24792e-14
-1.2034e-13
-6.97032e-13
-1.98088e-12
-4.05164e-12
-6.03168e-12
-4.73415e-12
7.19163e-12
4.28072e-11
1.20119e-10
2.55448e-10
4.46042e-10
6.37052e-10
6.70983e-10
2.25487e-10
-1.24084e-09
-4.49563e-09
-1.04324e-08
-1.97853e-08
-3.25807e-08
-4.72748e-08
-5.95966e-08
-6.12328e-08
-3.86542e-08
2.74274e-08
1.61309e-07
3.89475e-07
7.34972e-07
1.20845e-06
1.7958e-06
2.44313e-06
3.0406e-06
3.40777e-06
3.28409e-06
2.32862e-06
1.33343e-07
-3.74618e-06
-9.74075e-06
-1.81984e-05
-2.92988e-05
-4.29587e-05
-5.8737e-05
-7.57514e-05
-9.26213e-05
-0.000107446
-0.000117829
-0.000120951
-0.000113696
-9.28106e-05
-5.50942e-05
2.40478e-06
8.2206e-05
0.000186243
0.000315758
0.000471241
0.000652426
0.000858321
0.00108726
0.00133696
0.00160455
0.00188661
0.00217918
0.00247802
0.00277992
0.00307943
0.00337033
0.00364517
0.00389508
0.00410933
0.00427477
0.00437541
0.00439182
0.00430054
0.00407368
0.00367863
0.00307795
0.00222969
0.00108813
-0.000394952
-0.00226839
-0.00457905
-0.00736866
-0.0106699
-0.0145022
-0.0188664
-0.0237405
-0.0290746
-0.0347867
-0.0407595
-0.0468381
-0.05283
-0.0585069
-0.0636084
-0.0678467
-0.0709132
-0.0724893
-0.0722562
-0.0699058
-0.0651521
-0.0577409
-0.0474711
-0.0341915
-0.0178092
0.00170087
0.0242944
0.0498575
0.0782169
0.109135
0.142349
0.177502
0.214232
0.252161
0.290879
0.329992
0.369102
0.407831
0.445819
0.482731
0.518271
0.552176
0.584219
0.614215
0.642012
0.667497
0.690591
0.711247
0.729447
0.7452
0.75854
0.769512
0.778176
0.784617
0.788919
0.791163
0.791424
0.789751
0.786157
0.780581
0.772947
0.762821
0.750339
0.732955
0.715746
0.677518
-1.29146e-12
-3.12454e-13
-5.82874e-14
9.14359e-14
1.55775e-13
1.75599e-13
1.75339e-13
1.6601e-13
1.53257e-13
1.39842e-13
1.27062e-13
1.15382e-13
1.04851e-13
9.5368e-14
8.68198e-14
7.91082e-14
7.21531e-14
6.58877e-14
6.02537e-14
5.51975e-14
5.06688e-14
4.66199e-14
4.30043e-14
3.97763e-14
3.6891e-14
3.43053e-14
3.19789e-14
2.98695e-14
2.79163e-14
2.60133e-14
2.40193e-14
2.19381e-14
2.04777e-14
2.20336e-14
3.13114e-14
5.2875e-14
8.01707e-14
6.94879e-14
-1.01074e-13
-6.6356e-13
-1.90875e-12
-3.9045e-12
-5.77743e-12
-4.39284e-12
7.4463e-12
4.24627e-11
1.1801e-10
2.4924e-10
4.31422e-10
6.06565e-10
6.12655e-10
1.21968e-10
-1.41074e-09
-4.74939e-09
-1.07643e-08
-2.01277e-08
-3.27383e-08
-4.68305e-08
-5.77968e-08
-5.68803e-08
-3.00619e-08
4.23444e-08
1.8471e-07
4.22971e-07
7.78675e-07
1.25981e-06
1.84854e-06
2.48678e-06
3.06132e-06
3.39139e-06
3.22198e-06
2.22665e-06
2.32847e-08
-3.79508e-06
-9.61411e-06
-1.77389e-05
-2.83271e-05
-4.13217e-05
-5.63932e-05
-7.29026e-05
-8.98907e-05
-0.000106104
-0.000120051
-0.000130097
-0.000134565
-0.000131856
-0.000120547
-9.94638e-05
-6.77175e-05
-2.46917e-05
3.00147e-05
9.66826e-05
0.000175587
0.000267122
0.000371912
0.000490892
0.00062534
0.000776854
0.000947179
0.0011364
0.00134607
0.00157845
0.00183578
0.00212012
0.00243288
0.00277419
0.00314208
0.0035314
0.00393259
0.0043302
0.0047013
0.00501406
0.0052263
0.00528454
0.00512375
0.00466802
0.00383241
0.00252629
0.0006582
-0.00185819
-0.00509616
-0.009107
-0.0139106
-0.0194862
-0.0257634
-0.0326149
-0.0398515
-0.0472196
-0.0544048
-0.0610418
-0.066718
-0.0709894
-0.073398
-0.0734895
-0.0708374
-0.0650398
-0.0557769
-0.0428026
-0.0259541
-0.00516625
0.0195274
0.0479905
0.0799967
0.115238
0.153326
0.193828
0.236265
0.280138
0.324937
0.370161
0.415326
0.459984
0.503727
0.546191
0.587064
0.626087
0.663052
0.697801
0.730223
0.760248
0.787849
0.813029
0.835823
0.856287
0.874498
0.890553
0.904551
0.916603
0.926826
0.935332
0.942232
0.947614
0.951562
0.954104
0.955301
0.954914
0.953336
0.948693
0.945061
0.929735
5.12757e-12
1.4569e-12
4.15989e-13
-2.23158e-13
-5.41964e-13
-6.68235e-13
-6.98566e-13
-6.80531e-13
-6.40267e-13
-5.91663e-13
-5.42191e-13
-4.95404e-13
-4.52488e-13
-4.1344e-13
-3.77946e-13
-3.4567e-13
-3.16321e-13
-2.89662e-13
-2.65489e-13
-2.43617e-13
-2.23869e-13
-2.06077e-13
-1.90079e-13
-1.75719e-13
-1.6284e-13
-1.5129e-13
-1.40911e-13
-1.31543e-13
-1.23038e-13
-1.15281e-13
-1.08221e-13
-1.01876e-13
-9.61877e-14
-9.05385e-14
-8.28422e-14
-6.87843e-14
-4.34082e-14
-9.73894e-15
-6.44215e-16
-1.15686e-13
-5.55891e-13
-1.59751e-12
-3.38152e-12
-5.33538e-12
-5.05837e-12
3.28435e-12
3.04491e-11
9.18539e-11
2.0256e-10
3.6319e-10
5.32259e-10
5.82697e-10
2.46874e-10
-9.33602e-10
-3.61996e-09
-8.59754e-09
-1.65384e-08
-2.75359e-08
-4.03676e-08
-5.15016e-08
-5.39655e-08
-3.6336e-08
1.77434e-08
1.28975e-07
3.20153e-07
6.11714e-07
1.01481e-06
1.52204e-06
2.09663e-06
2.66137e-06
3.08958e-06
3.20041e-06
2.76104e-06
1.4978e-06
-8.82874e-07
-4.66454e-06
-1.00844e-05
-1.72953e-05
-2.63317e-05
-3.70865e-05
-4.9304e-05
-6.25926e-05
-7.64565e-05
-9.03446e-05
-0.000103707
-0.000116051
-0.000126985
-0.000136243
-0.000143682
-0.000149256
-0.000152964
-0.00015478
-0.000154577
-0.000152039
-0.000146568
-0.000137197
-0.000122562
-0.000101204
-7.32599e-05
-3.70322e-05
1.0522e-05
7.3406e-05
0.000156882
0.000267591
0.000413587
0.000604172
0.000849453
0.00115949
0.00154293
0.0020051
0.00254541
0.00315429
0.00380973
0.00447376
0.00508926
0.00557767
0.00583822
0.00574943
0.00517406
0.00396719
0.00198479
-0.000902037
-0.00479181
-0.00973636
-0.015725
-0.0226706
-0.0303992
-0.038642
-0.0470268
-0.0551068
-0.0623589
-0.0682057
-0.0720425
-0.0732606
-0.0712978
-0.0656224
-0.0558127
-0.041556
-0.0226625
0.000920456
0.0291042
0.0616665
0.0982633
0.138444
0.181672
0.227346
0.27483
0.323475
0.372641
0.42172
0.470145
0.517414
0.563091
0.606812
0.648288
0.687306
0.723723
0.757454
0.788473
0.816808
0.842522
0.865715
0.886511
0.905045
0.921473
0.935954
0.948647
0.959712
0.969302
0.977568
0.984653
0.99068
0.995782
1.00005
1.00362
1.00642
1.00896
1.01003
1.01256
1.01068
-2.01931e-11
-6.54689e-12
-2.27384e-12
3.90821e-13
1.85968e-12
2.52884e-12
2.76815e-12
2.77395e-12
2.66049e-12
2.49161e-12
2.30429e-12
2.11903e-12
1.94523e-12
1.78516e-12
1.63843e-12
1.50405e-12
1.38098e-12
1.26836e-12
1.16548e-12
1.07171e-12
9.86429e-13
9.09057e-13
8.39011e-13
7.75719e-13
7.18626e-13
6.6719e-13
6.20869e-13
5.79109e-13
5.41347e-13
5.07022e-13
4.75593e-13
4.46538e-13
4.19362e-13
3.93684e-13
3.69592e-13
3.48411e-13
3.33641e-13
3.30588e-13
3.41114e-13
3.47891e-13
2.84009e-13
-4.80486e-15
-7.68707e-13
-2.2458e-12
-4.29215e-12
-5.58418e-12
-2.33468e-12
1.31805e-11
5.32785e-11
1.32646e-10
2.60035e-10
4.20067e-10
5.42344e-10
4.58838e-10
-1.41668e-10
-1.74158e-09
-4.97015e-09
-1.04792e-08
-1.86667e-08
-2.92068e-08
-4.0381e-08
-4.82646e-08
-4.59138e-08
-2.27931e-08
3.52278e-08
1.44936e-07
3.23563e-07
5.85092e-07
9.35163e-07
1.36495e-06
1.84488e-06
2.31923e-06
2.70308e-06
2.88293e-06
2.72188e-06
2.06976e-06
7.77664e-07
-1.2849e-06
-4.21245e-06
-8.04872e-06
-1.27772e-05
-1.83193e-05
-2.45404e-05
-3.12631e-05
-3.82843e-05
-4.53945e-05
-5.2394e-05
-5.91061e-05
-6.53879e-05
-7.11431e-05
-7.63416e-05
-8.10534e-05
-8.54952e-05
-9.00864e-05
-9.54913e-05
-0.000102622
-0.000112579
-0.00012652
-0.000142921
-0.000162065
-0.00018368
-0.000206804
-0.000229284
-0.000247182
-0.000254075
-0.000240368
-0.000192777
-9.42325e-05
7.55087e-05
0.000338251
0.000714499
0.00121925
0.00185653
0.00261304
0.00345163
0.00430541
0.00507368
0.00562004
0.00577218
0.00533962
0.00411944
0.00191648
-0.00143418
-0.00604256
-0.0119391
-0.0190527
-0.0271947
-0.0360545
-0.0451747
-0.0539946
-0.0618545
-0.0680261
-0.0717514
-0.0722822
-0.0689222
-0.0610748
-0.0482703
-0.0301962
-0.00671465
0.0221286
0.056107
0.0948276
0.137754
0.184234
0.23353
0.284852
0.337397
0.390375
0.443042
0.494712
0.544787
0.59276
0.638218
0.680854
0.720452
0.756888
0.790119
0.820169
0.847118
0.871102
0.892284
0.910852
0.927019
0.940997
0.953002
0.963244
0.971923
0.979235
0.985357
0.990451
0.994665
0.998128
1.00097
1.00328
1.0052
1.00669
1.00821
1.00884
1.01095
1.01075
8.10468e-11
2.86268e-11
1.11922e-11
1.94046e-13
-6.30846e-12
-9.55532e-12
-1.09455e-11
-1.12693e-11
-1.10104e-11
-1.04493e-11
-9.75507e-12
-9.02946e-12
-8.32933e-12
-7.67504e-12
-7.06991e-12
-6.51192e-12
-5.99772e-12
-5.5242e-12
-5.08884e-12
-4.68948e-12
-4.32408e-12
-3.99058e-12
-3.68695e-12
-3.41112e-12
-3.16103e-12
-2.93463e-12
-2.72996e-12
-2.54501e-12
-2.37775e-12
-2.22604e-12
-2.08773e-12
-1.96078e-12
-1.84344e-12
-1.73434e-12
-1.63244e-12
-1.53681e-12
-1.44595e-12
-1.35674e-12
-1.26369e-12
-1.1609e-12
-1.05126e-12
-9.6834e-13
-1.0119e-12
-1.38165e-12
-2.35982e-12
-4.14429e-12
-6.39155e-12
-7.34422e-12
-2.57243e-12
1.62571e-11
6.15101e-11
1.46682e-10
2.7778e-10
4.36235e-10
5.51932e-10
4.68581e-10
-9.01366e-11
-1.53679e-09
-4.39305e-09
-9.18732e-09
-1.62463e-08
-2.53617e-08
-3.53404e-08
-4.34861e-08
-4.51094e-08
-3.32133e-08
1.47409e-09
6.99433e-08
1.83703e-07
3.52911e-07
5.83967e-07
8.76849e-07
1.22266e-06
1.6019e-06
1.98408e-06
2.32903e-06
2.59009e-06
2.71906e-06
2.67232e-06
2.41726e-06
1.93805e-06
1.23967e-06
3.49488e-07
-6.83712e-07
-1.79314e-06
-2.89886e-06
-3.9131e-06
-4.74509e-06
-5.30501e-06
-5.5081e-06
-5.28222e-06
-4.58643e-06
-3.45098e-06
-2.04976e-06
-7.97323e-07
-3.89878e-07
-1.44062e-06
-3.95453e-06
-8.50658e-06
-1.63436e-05
-2.90772e-05
-4.85628e-05
-7.64594e-05
-0.000113411
-0.000157769
-0.000204115
-0.000241692
-0.000253133
-0.000214043
-9.40113e-05
0.000140433
0.000520598
0.00106816
0.00178593
0.00264779
0.00358935
0.00450131
0.00523038
0.00556816
0.00528142
0.00412069
0.00184668
-0.00173845
-0.00675769
-0.0132267
-0.0210265
-0.0298835
-0.0393607
-0.048868
-0.0576782
-0.0649621
-0.0698322
-0.0713963
-0.068811
-0.0613375
-0.0483895
-0.0295698
-0.00469696
0.0261845
0.0628068
0.104695
0.151197
0.201522
0.254778
0.310022
0.366299
0.422684
0.478316
0.532427
0.584351
0.633553
0.679618
0.722253
0.761283
0.796639
0.828343
0.856489
0.881236
0.902789
0.921383
0.937272
0.95072
0.961993
0.971343
0.979015
0.985238
0.990221
0.994154
0.997207
0.999526
1.00124
1.00247
1.00331
1.00384
1.00415
1.00419
1.00437
1.00379
1.00465
1.00327
-3.30073e-10
-1.23323e-10
-5.20755e-11