/*--------------------------------*- C++ -*----------------------------------*\
| =========                 |                                                 |
| \\      /  F ield         | OpenFOAM: The Open Source CFD Toolbox           |
|  \\    /   O peration     | Version:  4.1                                   |
|   \\  /    A nd           | Web:      www.OpenFOAM.org                      |
|    \\/     M anipulation  |                                                 |
\*---------------------------------------------------------------------------*/
FoamFile
{
    version     2.0;
    format      ascii;
    class       volScalarField;
    location    "0.1";
    object      T;
}
// * * * * * * * * * * * * * * * * * * * * * * * * * * * * * * * * * * * * * //

dimensions      [0 0 0 1 0 0 0];

internalField   nonuniform List<scalar> 
12225
(
0.625082
0.501659
0.482429
0.479445
0.478893
0.478746
0.478693
0.478669
0.478656
0.478648
0.478642
0.478633
0.478613
0.478565
0.478445
0.478149
0.477401
0.475559
0.617081
0.498208
0.480748
0.478495
0.478335
0.47841
0.478486
0.478541
0.478578
0.478602
0.478617
0.478622
0.478613
0.478572
0.478461
0.47818
0.47749
0.475807
0.621282
0.500687
0.482151
0.479347
0.478884
0.478769
0.478724
0.4787
0.478685
0.478674
0.478666
0.478655
0.478635
0.47859
0.478481
0.478222
0.477623
0.476293
0.621277
0.500416
0.481761
0.479003
0.478628
0.478587
0.478593
0.478605
0.478616
0.478624
0.478629
0.478628
0.478616
0.478579
0.478485
0.478262
0.477768
0.476748
0.621238
0.500487
0.481847
0.479071
0.47869
0.478643
0.47864
0.478643
0.478646
0.478648
0.478648
0.478644
0.478631
0.478596
0.478513
0.478326
0.477933
0.477178
0.621177
0.50051
0.481888
0.479083
0.478687
0.478637
0.478634
0.478638
0.478641
0.478644
0.478645
0.478642
0.478631
0.478603
0.478534
0.478384
0.478084
0.477542
0.621178
0.500547
0.481941
0.479115
0.478704
0.47865
0.478645
0.478646
0.478649
0.478651
0.478651
0.478649
0.478639
0.478615
0.47856
0.478445
0.478223
0.477844
0.621179
0.500558
0.481969
0.479137
0.478717
0.478659
0.478652
0.478652
0.478654
0.478655
0.478655
0.478653
0.478645
0.478625
0.478581
0.478491
0.478324
0.478047
0.621177
0.500563
0.481988
0.479156
0.478731
0.478669
0.47866
0.478659
0.47866
0.478661
0.47866
0.478658
0.478651
0.478635
0.478599
0.478529
0.478402
0.478196
0.621174
0.500565
0.482002
0.479173
0.478745
0.47868
0.478669
0.478667
0.478667
0.478667
0.478666
0.478664
0.478658
0.478645
0.478617
0.478565
0.478472
0.478327
0.621171
0.500564
0.482012
0.479188
0.478759
0.478692
0.47868
0.478676
0.478675
0.478674
0.478672
0.47867
0.478666
0.478656
0.478636
0.478598
0.478534
0.478436
0.621167
0.500561
0.482017
0.479198
0.478771
0.478704
0.47869
0.478686
0.478684
0.478682
0.47868
0.478678
0.478674
0.478667
0.478653
0.478628
0.478585
0.478523
0.621164
0.500557
0.482019
0.479205
0.47878
0.478714
0.4787
0.478696
0.478692
0.47869
0.478689
0.478686
0.478683
0.478678
0.478668
0.478652
0.478626
0.478589
0.621161
0.500553
0.482019
0.479209
0.478786
0.47872
0.478708
0.478704
0.478701
0.478699
0.478697
0.478695
0.478692
0.478688
0.478682
0.478672
0.478657
0.478636
0.621158
0.500549
0.482017
0.47921
0.478789
0.478725
0.478713
0.47871
0.478708
0.478706
0.478704
0.478702
0.4787
0.478697
0.478693
0.478687
0.478679
0.478669
0.621156
0.500546
0.482015
0.479209
0.47879
0.478728
0.478717
0.478714
0.478712
0.47871
0.478709
0.478708
0.478706
0.478704
0.478701
0.478698
0.478693
0.478689
0.621154
0.500544
0.482013
0.479208
0.47879
0.478728
0.478718
0.478716
0.478714
0.478714
0.478712
0.478711
0.47871
0.478709
0.478708
0.478705
0.478702
0.4787
0.621154
0.500543
0.482012
0.479208
0.47879
0.478728
0.478718
0.478715
0.478714
0.478714
0.478713
0.478713
0.478711
0.47871
0.478708
0.478706
0.478705
0.478704
0.621154
0.500543
0.482012
0.479207
0.478789
0.478728
0.478718
0.478714
0.478712
0.478712
0.47871
0.478709
0.478708
0.478707
0.478706
0.478705
0.478703
0.478703
0.621154
0.500544
0.482012
0.479207
0.478788
0.478725
0.478715
0.478711
0.478709
0.478707
0.478706
0.478705
0.478704
0.478703
0.478702
0.478701
0.4787
0.478701
0.621154
0.500545
0.482014
0.479206
0.478784
0.47872
0.478709
0.478705
0.478703
0.478701
0.478699
0.478698
0.478697
0.478697
0.478696
0.478695
0.478694
0.478695
0.621154
0.500547
0.482015
0.479204
0.47878
0.478714
0.478702
0.478698
0.478696
0.478694
0.478693
0.478692
0.478692
0.478691
0.478691
0.478691
0.47869
0.47869
0.621152
0.500551
0.482014
0.479195
0.478767
0.478701
0.478689
0.478685
0.478684
0.478683
0.478683
0.478682
0.478682
0.478683
0.478682
0.478682
0.478682
0.478683
0.621147
0.500559
0.482014
0.479187
0.478759
0.478694
0.478684
0.478681
0.478681
0.47868
0.47868
0.47868
0.478681
0.478681
0.478681
0.478681
0.478681
0.478682
0.621134
0.500551
0.481983
0.479149
0.478725
0.478665
0.478657
0.478657
0.478658
0.47866
0.478662
0.478664
0.478665
0.478667
0.478669
0.47867
0.478671
0.478673
0.621195
0.500594
0.48198
0.479154
0.478749
0.478696
0.478689
0.478687
0.478686
0.478685
0.478684
0.478682
0.478681
0.47868
0.47868
0.47868
0.478679
0.47868
0.621276
0.500532
0.481808
0.478971
0.478582
0.478548
0.478561
0.47858
0.478597
0.478611
0.478622
0.478631
0.478639
0.478645
0.478651
0.478655
0.478659
0.478661
0.621626
0.501078
0.482445
0.479563
0.479064
0.478923
0.47885
0.478804
0.478771
0.478747
0.47873
0.478716
0.478707
0.4787
0.478695
0.478691
0.47869
0.478684
0.617042
0.497852
0.480426
0.478232
0.478138
0.478261
0.478372
0.478454
0.478512
0.478553
0.478582
0.478604
0.47862
0.478632
0.478642
0.47865
0.478659
0.478657
0.625111
0.502056
0.482622
0.479575
0.479005
0.478839
0.47877
0.478733
0.478711
0.478697
0.478687
0.47868
0.478676
0.478673
0.478671
0.478671
0.478674
0.478662
0.386692
0.386694
0.386674
0.386653
0.386634
0.386614
0.386594
0.386573
0.38655
0.386527
0.386506
0.386485
0.386465
0.386446
0.386428
0.386411
0.386396
0.386384
0.386374
0.386367
0.386363
0.386363
0.386368
0.386377
0.386391
0.38641
0.386436
0.386468
0.386506
0.386551
0.386604
0.386664
0.386732
0.386809
0.386893
0.386987
0.387089
0.3872
0.387321
0.38745
0.387589
0.387738
0.387896
0.388063
0.388239
0.388425
0.388619
0.388823
0.389035
0.389256
0.389486
0.389724
0.389969
0.390223
0.390483
0.390751
0.391025
0.391305
0.391591
0.391883
0.39218
0.392481
0.392787
0.393096
0.393409
0.393725
0.394044
0.394365
0.394688
0.395013
0.395339
0.395666
0.395994
0.396322
0.39665
0.396977
0.397305
0.397631
0.397957
0.398281
0.398604
0.398925
0.399245
0.399562
0.399878
0.40019
0.400501
0.400808
0.401113
0.401415
0.401713
0.402009
0.402301
0.40259
0.402874
0.403155
0.403433
0.403706
0.403976
0.404241
0.404502
0.404759
0.405012
0.405261
0.405505
0.405745
0.40598
0.406211
0.406438
0.406661
0.406879
0.407093
0.407302
0.407507
0.407707
0.407903
0.408095
0.408282
0.408465
0.408643
0.408816
0.408985
0.409149
0.409308
0.409462
0.409612
0.409757
0.409897
0.410032
0.410162
0.410287
0.410407
0.410522
0.410631
0.410736
0.410835
0.410929
0.411017
0.4111
0.411177
0.411249
0.411315
0.411376
0.411431
0.41148
0.411523
0.41156
0.411592
0.411618
0.411638
0.411652
0.41166
0.411662
0.411658
0.411649
0.411633
0.411612
0.411585
0.411551
0.411513
0.411466
0.411414
0.411362
0.411287
0.411205
0.411118
0.411012
0.410902
0.410787
0.410668
0.410544
0.410416
0.410283
0.410145
0.410004
0.409856
0.409715
0.409531
0.4095
0.408677
0.386952
0.386945
0.386942
0.386937
0.386931
0.386923
0.386914
0.386903
0.386888
0.38687
0.38685
0.38683
0.386809
0.386788
0.386768
0.386749
0.386731
0.386716
0.386703
0.386693
0.386687
0.386684
0.386685
0.386692
0.386703
0.38672
0.386743
0.386772
0.386808
0.386851
0.386901
0.386959
0.387025
0.387099
0.387181
0.387273
0.387373
0.387482
0.3876
0.387727
0.387864
0.38801
0.388165
0.38833
0.388504
0.388687
0.38888
0.389081
0.389292
0.389511
0.389738
0.389973
0.390217
0.390468
0.390726
0.390991
0.391262
0.39154
0.391824
0.392113
0.392407
0.392706
0.393009
0.393317
0.393627
0.393941
0.394257
0.394576
0.394896
0.395219
0.395542
0.395867
0.396192
0.396518
0.396843
0.397168
0.397493
0.397817
0.39814
0.398462
0.398782
0.399101
0.399417
0.399732
0.400044
0.400354
0.400662
0.400966
0.401268
0.401566
0.401862
0.402154
0.402442
0.402727
0.403009
0.403286
0.40356
0.403829
0.404095
0.404356
0.404613
0.404866
0.405115
0.405359
0.405599
0.405835
0.406067
0.406294
0.406516
0.406734
0.406948
0.407158
0.407362
0.407563
0.407759
0.40795
0.408137
0.40832
0.408498
0.408671
0.408839
0.409003
0.409162
0.409316
0.409466
0.409611
0.409751
0.409885
0.410015
0.41014
0.41026
0.410375
0.410484
0.410589
0.410688
0.410782
0.41087
0.410953
0.411031
0.411103
0.411169
0.41123
0.411285
0.411334
0.411378
0.411416
0.411448
0.411474
0.411494
0.411509
0.411517
0.411519
0.411516
0.411506
0.41149
0.411468
0.41144
0.411406
0.411365
0.41132
0.411265
0.411206
0.411144
0.411067
0.410989
0.410911
0.410821
0.410725
0.410623
0.410516
0.410404
0.410286
0.410163
0.410036
0.409905
0.409769
0.409639
0.409479
0.40942
0.408872
0.387492
0.387459
0.387445
0.387436
0.387428
0.387416
0.387402
0.387385
0.387365
0.387343
0.387319
0.387295
0.387271
0.387247
0.387223
0.387201
0.387181
0.387163
0.387147
0.387135
0.387126
0.387121
0.38712
0.387124
0.387133
0.387147
0.387168
0.387195
0.387228
0.387269
0.387316
0.387371
0.387434
0.387506
0.387585
0.387673
0.38777
0.387876
0.387991
0.388115
0.388248
0.388391
0.388543
0.388704
0.388875
0.389055
0.389243
0.389441
0.389648
0.389863
0.390086
0.390318
0.390557
0.390804
0.391059
0.39132
0.391588
0.391863
0.392143
0.392428
0.392719
0.393014
0.393314
0.393618
0.393925
0.394236
0.394549
0.394865
0.395183
0.395502
0.395823
0.396145
0.396468
0.396791
0.397114
0.397437
0.39776
0.398082
0.398404
0.398724
0.399042
0.399359
0.399675
0.399988
0.4003
0.400609
0.400915
0.401219
0.40152
0.401818
0.402113
0.402405
0.402693
0.402978
0.40326
0.403537
0.403811
0.40408
0.404346
0.404608
0.404865
0.405118
0.405368
0.405612
0.405853
0.406089
0.406321
0.406548
0.406771
0.40699
0.407204
0.407414
0.407619
0.40782
0.408017
0.408208
0.408396
0.408578
0.408756
0.40893
0.409099
0.409263
0.409422
0.409576
0.409726
0.409871
0.41001
0.410145
0.410275
0.4104
0.410519
0.410633
0.410742
0.410846
0.410945
0.411038
0.411126
0.411208
0.411284
0.411355
0.411421
0.41148
0.411534
0.411582
0.411625
0.411661
0.411691
0.411716
0.411734
0.411747
0.411753
0.411753
0.411747
0.411735
0.411717
0.411693
0.411662
0.411625
0.411581
0.411532
0.411477
0.411415
0.411349
0.411273
0.411194
0.411115
0.411028
0.410934
0.410834
0.410729
0.410618
0.410502
0.41038
0.410254
0.410124
0.409989
0.409857
0.409698
0.409614
0.409217
0.388275
0.388221
0.388197
0.388184
0.38817
0.388152
0.388131
0.388107
0.388082
0.388055
0.388027
0.387999
0.387971
0.387943
0.387916
0.38789
0.387866
0.387844
0.387824
0.387808
0.387795
0.387786
0.387781
0.387781
0.387786
0.387797
0.387813
0.387835
0.387864
0.3879
0.387943
0.387994
0.388052
0.388118
0.388193
0.388276
0.388367
0.388468
0.388577
0.388696
0.388824
0.388961
0.389107
0.389262
0.389427
0.3896
0.389783
0.389975
0.390175
0.390384
0.390602
0.390827
0.39106
0.391301
0.39155
0.391805
0.392067
0.392336
0.39261
0.39289
0.393175
0.393465
0.393759
0.394058
0.39436
0.394665
0.394974
0.395285
0.395598
0.395913
0.39623
0.396548
0.396867
0.397186
0.397506
0.397826
0.398145
0.398465
0.398783
0.399101
0.399417
0.399732
0.400046
0.400358
0.400668
0.400976
0.401281
0.401585
0.401885
0.402183
0.402478
0.40277
0.403059
0.403344
0.403626
0.403905
0.404179
0.40445
0.404717
0.40498
0.405239
0.405494
0.405745
0.405992
0.406235
0.406473
0.406707
0.406936
0.407161
0.407382
0.407599
0.407811
0.408018
0.408222
0.40842
0.408614
0.408804
0.408989
0.409169
0.409345
0.409516
0.409682
0.409844
0.41
0.410152
0.410299
0.41044
0.410577
0.410708
0.410835
0.410956
0.411072
0.411182
0.411288
0.411387
0.411482
0.41157
0.411654
0.411731
0.411803
0.411869
0.411929
0.411983
0.412032
0.412074
0.412111
0.412141
0.412165
0.412183
0.412195
0.412201
0.4122
0.412194
0.412181
0.412162
0.412136
0.412104
0.412066
0.412022
0.411971
0.411914
0.411851
0.411783
0.411707
0.411627
0.411544
0.411455
0.411359
0.411257
0.41115
0.411037
0.410918
0.410795
0.410666
0.410533
0.410394
0.410257
0.410093
0.409992
0.409672
0.389292
0.389227
0.389196
0.389179
0.38916
0.389137
0.38911
0.389081
0.38905
0.389018
0.388985
0.388952
0.388918
0.388885
0.388852
0.388821
0.388792
0.388765
0.38874
0.388719
0.3887
0.388686
0.388676
0.38867
0.38867
0.388675
0.388685
0.388702
0.388725
0.388755
0.388792
0.388836
0.388888
0.388948
0.389016
0.389092
0.389176
0.38927
0.389372
0.389483
0.389604
0.389733
0.389871
0.390019
0.390176
0.390342
0.390516
0.3907
0.390892
0.391093
0.391303
0.39152
0.391745
0.391978
0.392219
0.392466
0.39272
0.392981
0.393247
0.39352
0.393797
0.39408
0.394367
0.394659
0.394954
0.395253
0.395555
0.395859
0.396167
0.396476
0.396787
0.397099
0.397413
0.397727
0.398042
0.398358
0.398673
0.398988
0.399303
0.399617
0.39993
0.400243
0.400553
0.400863
0.401171
0.401477
0.401781
0.402083
0.402383
0.40268
0.402975
0.403267
0.403556
0.403842
0.404124
0.404404
0.40468
0.404952
0.40522
0.405485
0.405746
0.406003
0.406256
0.406505
0.406749
0.40699
0.407226
0.407458
0.407686
0.407909
0.408129
0.408343
0.408554
0.40876
0.408961
0.409158
0.40935
0.409538
0.409721
0.4099
0.410073
0.410242
0.410406
0.410565
0.41072
0.410869
0.411013
0.411152
0.411286
0.411414
0.411537
0.411655
0.411768
0.411875
0.411976
0.412072
0.412162
0.412246
0.412325
0.412398
0.412464
0.412525
0.41258
0.412629
0.412672
0.412708
0.412738
0.412762
0.41278
0.412792
0.412797
0.412796
0.412789
0.412774
0.412754
0.412728
0.412694
0.412655
0.412609
0.412557
0.412498
0.412433
0.412363
0.412285
0.412203
0.412117
0.412024
0.411925
0.411821
0.411711
0.411595
0.411473
0.411347
0.411214
0.411078
0.410934
0.410791
0.410624
0.410514
0.410229
0.390554
0.390484
0.390449
0.390427
0.390404
0.390376
0.390344
0.39031
0.390273
0.390235
0.390196
0.390156
0.390117
0.390077
0.390039
0.390001
0.389966
0.389932
0.389901
0.389873
0.389848
0.389827
0.38981
0.389798
0.389791
0.389788
0.389792
0.389801
0.389817
0.389839
0.389868
0.389905
0.389949
0.39
0.39006
0.390128
0.390204
0.390288
0.390382
0.390484
0.390595
0.390715
0.390844
0.390982
0.391129
0.391285
0.39145
0.391624
0.391806
0.391997
0.392196
0.392404
0.392619
0.392842
0.393073
0.39331
0.393555
0.393806
0.394063
0.394326
0.394594
0.394867
0.395146
0.395428
0.395715
0.396006
0.396299
0.396596
0.396896
0.397197
0.397501
0.397807
0.398113
0.398421
0.39873
0.39904
0.39935
0.399659
0.399969
0.400279
0.400588
0.400896
0.401203
0.401509
0.401815
0.402118
0.40242
0.40272
0.403018
0.403314
0.403608
0.403899
0.404188
0.404474
0.404757
0.405037
0.405313
0.405587
0.405856
0.406122
0.406385
0.406644
0.406899
0.40715
0.407396
0.407639
0.407878
0.408113
0.408343
0.408569
0.408791
0.409009
0.409222
0.40943
0.409635
0.409835
0.41003
0.41022
0.410407
0.410588
0.410764
0.410936
0.411103
0.411265
0.411421
0.411573
0.41172
0.411861
0.411997
0.412128
0.412253
0.412373
0.412487
0.412596
0.412699
0.412796
0.412888
0.412974
0.413053
0.413127
0.413194
0.413256
0.413311
0.41336
0.413403
0.41344
0.41347
0.413493
0.41351
0.413522
0.413525
0.413523
0.413515
0.4135
0.413478
0.41345
0.413415
0.413374
0.413326
0.413271
0.41321
0.413143
0.41307
0.412991
0.412906
0.412816
0.41272
0.412618
0.41251
0.412396
0.412277
0.412153
0.412022
0.411887
0.411746
0.411598
0.41145
0.411278
0.411164
0.410888
0.392069
0.392
0.391962
0.391937
0.391909
0.391877
0.39184
0.391799
0.391757
0.391713
0.391667
0.391621
0.391574
0.391527
0.391482
0.391437
0.391394
0.391353
0.391314
0.391278
0.391246
0.391217
0.391192
0.391172
0.391156
0.391145
0.39114
0.391141
0.391147
0.391161
0.391181
0.391208
0.391242
0.391284
0.391333
0.391391
0.391457
0.391531
0.391614
0.391705
0.391805
0.391914
0.392032
0.392159
0.392294
0.392439
0.392592
0.392754
0.392925
0.393104
0.393291
0.393487
0.393691
0.393902
0.394121
0.394347
0.394579
0.394819
0.395065
0.395316
0.395573
0.395836
0.396104
0.396376
0.396652
0.396932
0.397216
0.397503
0.397793
0.398086
0.398381
0.398678
0.398976
0.399276
0.399578
0.39988
0.400182
0.400486
0.400789
0.401093
0.401396
0.401699
0.402002
0.402303
0.402604
0.402904
0.403203
0.4035
0.403796
0.40409
0.404382
0.404671
0.404959
0.405244
0.405527
0.405807
0.406084
0.406357
0.406628
0.406895
0.407159
0.407419
0.407676
0.407928
0.408177
0.408422
0.408663
0.4089
0.409133
0.409361
0.409586
0.409806
0.410022
0.410233
0.41044
0.410643
0.410841
0.411034
0.411223
0.411407
0.411587
0.411761
0.411931
0.412095
0.412254
0.412409
0.412558
0.412702
0.41284
0.412973
0.4131
0.413222
0.413338
0.413449
0.413553
0.413652
0.413745
0.413832
0.413912
0.413986
0.414055
0.414117
0.414172
0.414221
0.414264
0.4143
0.41433
0.414353
0.414369
0.41438
0.414383
0.414379
0.414369
0.414352
0.414329
0.414299
0.414262
0.414218
0.414168
0.414111
0.414047
0.413977
0.413901
0.413819
0.413731
0.413637
0.413537
0.413432
0.41332
0.413203
0.41308
0.412952
0.412818
0.412678
0.412533
0.412381
0.412227
0.412051
0.411932
0.411656
0.393857
0.393789
0.393749
0.39372
0.393688
0.39365
0.393607
0.393561
0.393512
0.393461
0.393408
0.393354
0.393299
0.393245
0.393191
0.393138
0.393086
0.393037
0.392989
0.392944
0.392903
0.392865
0.39283
0.3928
0.392775
0.392754
0.392739
0.39273
0.392726
0.392729
0.392738
0.392754
0.392777
0.392808
0.392846
0.392892
0.392945
0.393008
0.393078
0.393157
0.393244
0.393341
0.393445
0.393559
0.393682
0.393813
0.393953
0.394101
0.394258
0.394424
0.394598
0.39478
0.39497
0.395167
0.395373
0.395585
0.395805
0.396031
0.396263
0.396502
0.396746
0.396996
0.397251
0.39751
0.397775
0.398043
0.398315
0.398591
0.39887
0.399151
0.399435
0.399722
0.400011
0.400301
0.400593
0.400886
0.40118
0.401475
0.401771
0.402067
0.402363
0.402659
0.402955
0.403251
0.403547
0.403842
0.404136
0.404429
0.404721
0.405011
0.405301
0.405588
0.405874
0.406157
0.406439
0.406718
0.406994
0.407267
0.407538
0.407805
0.40807
0.408331
0.408588
0.408842
0.409092
0.409338
0.409581
0.409819
0.410054
0.410285
0.410511
0.410734
0.410952
0.411166
0.411375
0.41158
0.411781
0.411977
0.412168
0.412355
0.412537
0.412714
0.412886
0.413053
0.413215
0.413371
0.413523
0.413669
0.413809
0.413944
0.414073
0.414197
0.414315
0.414427
0.414533
0.414633
0.414727
0.414814
0.414896
0.414971
0.41504
0.415102
0.415157
0.415206
0.415249
0.415285
0.415314
0.415336
0.415351
0.41536
0.415362
0.415357
0.415345
0.415326
0.415301
0.415268
0.415229
0.415182
0.415129
0.415069
0.415003
0.41493
0.414851
0.414765
0.414673
0.414575
0.414472
0.414362
0.414247
0.414126
0.413999
0.413866
0.413728
0.413584
0.413434
0.413277
0.413118
0.412938
0.412813
0.412531
0.395931
0.395865
0.395823
0.395788
0.395751
0.395707
0.395658
0.395605
0.395549
0.39549
0.395429
0.395367
0.395304
0.39524
0.395177
0.395115
0.395054
0.394994
0.394936
0.394881
0.394829
0.394781
0.394735
0.394694
0.394658
0.394626
0.394599
0.394578
0.394563
0.394553
0.39455
0.394554
0.394564
0.394582
0.394607
0.39464
0.39468
0.394728
0.394785
0.39485
0.394923
0.395005
0.395095
0.395194
0.395302
0.395418
0.395543
0.395676
0.395818
0.395968
0.396127
0.396293
0.396468
0.39665
0.39684
0.397037
0.397241
0.397452
0.397669
0.397893
0.398122
0.398357
0.398598
0.398843
0.399093
0.399348
0.399606
0.399868
0.400134
0.400403
0.400675
0.400949
0.401226
0.401505
0.401785
0.402068
0.402351
0.402636
0.402922
0.403209
0.403496
0.403784
0.404072
0.404361
0.404649
0.404937
0.405225
0.405513
0.405799
0.406085
0.40637
0.406654
0.406936
0.407217
0.407496
0.407772
0.408047
0.408319
0.408588
0.408855
0.409119
0.409379
0.409636
0.40989
0.410141
0.410388
0.410631
0.410871
0.411107
0.411339
0.411566
0.41179
0.41201
0.412226
0.412437
0.412644
0.412847
0.413045
0.413238
0.413427
0.413611
0.41379
0.413964
0.414133
0.414297
0.414455
0.414609
0.414756
0.414899
0.415035
0.415166
0.415291
0.415411
0.415524
0.415631
0.415732
0.415827
0.415915
0.415997
0.416072
0.416141
0.416203
0.416259
0.416308
0.41635
0.416385
0.416413
0.416434
0.416448
0.416456
0.416456
0.416449
0.416435
0.416414
0.416386
0.416351
0.416308
0.416259
0.416203
0.41614
0.41607
0.415994
0.415911
0.415821
0.415725
0.415624
0.415516
0.415402
0.415282
0.415157
0.415025
0.414888
0.414745
0.414596
0.414442
0.41428
0.414116
0.41393
0.413801
0.413511
0.398306
0.39824
0.398195
0.398155
0.398111
0.398061
0.398005
0.397945
0.397881
0.397813
0.397744
0.397672
0.397599
0.397526
0.397452
0.397379
0.397307
0.397236
0.397167
0.397101
0.397037
0.396976
0.396918
0.396865
0.396816
0.396771
0.396731
0.396697
0.396668
0.396645
0.396628
0.396618
0.396614
0.396617
0.396628
0.396646
0.396671
0.396704
0.396745
0.396795
0.396852
0.396918
0.396992
0.397075
0.397166
0.397265
0.397373
0.39749
0.397615
0.397748
0.397889
0.398039
0.398196
0.398361
0.398533
0.398713
0.3989
0.399094
0.399294
0.399501
0.399714
0.399932
0.400156
0.400385
0.400619
0.400858
0.4011
0.401347
0.401598
0.401852
0.402109
0.402369
0.402632
0.402897
0.403164
0.403434
0.403705
0.403978
0.404252
0.404527
0.404804
0.405082
0.40536
0.405639
0.405918
0.406198
0.406478
0.406758
0.407037
0.407317
0.407596
0.407874
0.408151
0.408427
0.408702
0.408975
0.409245
0.409514
0.409782
0.410046
0.410308
0.410566
0.410822
0.411075
0.411325
0.411571
0.411814
0.412053
0.412289
0.412521
0.41275
0.412974
0.413194
0.413411
0.413623
0.413831
0.414035
0.414234
0.414429
0.414619
0.414804
0.414984
0.41516
0.41533
0.415495
0.415655
0.41581
0.415959
0.416102
0.41624
0.416372
0.416498
0.416618
0.416732
0.41684
0.416942
0.417037
0.417125
0.417207
0.417283
0.417352
0.417414
0.417469
0.417517
0.417558
0.417592
0.417619
0.417638
0.417651
0.417657
0.417655
0.417646
0.417629
0.417606
0.417575
0.417537
0.417492
0.41744
0.41738
0.417313
0.41724
0.41716
0.417073
0.416979
0.416879
0.416773
0.416661
0.416543
0.416418
0.416288
0.416152
0.41601
0.415862
0.415708
0.415549
0.415382
0.415213
0.415022
0.414887
0.41459
0.400995
0.40093
0.400881
0.400836
0.400785
0.400727
0.400663
0.400594
0.400521
0.400444
0.400364
0.400282
0.400199
0.400114
0.400028
0.399943
0.399859
0.399775
0.399693
0.399613
0.399536
0.399462
0.399391
0.399323
0.39926
0.399201
0.399147
0.399097
0.399054
0.399016
0.398983
0.398957
0.398938
0.398925
0.39892
0.398921
0.39893
0.398946
0.398971
0.399003
0.399043
0.399091
0.399147
0.399212
0.399285
0.399366
0.399456
0.399554
0.39966
0.399774
0.399897
0.400027
0.400165
0.400311
0.400465
0.400626
0.400793
0.400968
0.401149
0.401337
0.401531
0.401731
0.401936
0.402147
0.402363
0.402583
0.402808
0.403037
0.403271
0.403508
0.403748
0.403992
0.404238
0.404488
0.40474
0.404994
0.40525
0.405509
0.405769
0.406031
0.406294
0.406559
0.406825
0.407093
0.407361
0.40763
0.407899
0.40817
0.40844
0.408711
0.408982
0.409252
0.409522
0.409792
0.41006
0.410327
0.410593
0.410857
0.41112
0.41138
0.411638
0.411893
0.412146
0.412396
0.412643
0.412887
0.413128
0.413366
0.4136
0.413831
0.414058
0.414282
0.414502
0.414718
0.41493
0.415137
0.415341
0.41554
0.415735
0.415925
0.416111
0.416291
0.416467
0.416638
0.416804
0.416964
0.417119
0.417269
0.417413
0.417551
0.417683
0.41781
0.41793
0.418044
0.418152
0.418254
0.418349
0.418437
0.418519
0.418594
0.418662
0.418723
0.418777
0.418824
0.418864
0.418897
0.418922
0.41894
0.418951
0.418954
0.41895
0.418939
0.41892
0.418893
0.41886
0.418819
0.41877
0.418714
0.418651
0.418581
0.418504
0.418419
0.418328
0.41823
0.418126
0.418015
0.417898
0.417775
0.417646
0.417511
0.41737
0.417223
0.41707
0.416912
0.416747
0.416575
0.416402
0.416206
0.416065
0.41576
0.404015
0.403951
0.403898
0.403845
0.403786
0.40372
0.403647
0.403569
0.403485
0.403397
0.403306
0.403211
0.403115
0.403017
0.402918
0.402819
0.402721
0.402623
0.402526
0.402432
0.402339
0.40225
0.402163
0.40208
0.402001
0.401926
0.401855
0.40179
0.40173
0.401675
0.401626
0.401583
0.401546
0.401516
0.401493
0.401476
0.401467
0.401465
0.401471
0.401484
0.401506
0.401535
0.401572
0.401617
0.40167
0.401732
0.401801
0.401879
0.401965
0.402059
0.40216
0.40227
0.402388
0.402513
0.402645
0.402785
0.402932
0.403085
0.403246
0.403412
0.403585
0.403764
0.403949
0.404139
0.404334
0.404535
0.40474
0.404949
0.405162
0.40538
0.405601
0.405826
0.406054
0.406285
0.406519
0.406756
0.406995
0.407237
0.407481
0.407727
0.407975
0.408224
0.408476
0.408729
0.408983
0.409239
0.409496
0.409754
0.410013
0.410273
0.410533
0.410794
0.411054
0.411315
0.411574
0.411833
0.412092
0.412349
0.412605
0.412859
0.413111
0.41336
0.413608
0.413853
0.414096
0.414336
0.414573
0.414807
0.415038
0.415266
0.415491
0.415712
0.415929
0.416143
0.416353
0.416559
0.416761
0.416959
0.417153
0.417342
0.417526
0.417706
0.417881
0.418051
0.418216
0.418376
0.41853
0.418679
0.418823
0.418961
0.419092
0.419218
0.419338
0.419452
0.419559
0.41966
0.419754
0.419841
0.419922
0.419996
0.420063
0.420123
0.420175
0.420221
0.420259
0.42029
0.420313
0.420329
0.420338
0.420339
0.420332
0.420318
0.420296
0.420267
0.42023
0.420185
0.420133
0.420074
0.420007
0.419933
0.419851
0.419763
0.419667
0.419565
0.419456
0.419341
0.419219
0.419091
0.418957
0.418817
0.418671
0.418519
0.418361
0.418197
0.418028
0.417851
0.417672
0.417472
0.417325
0.417015
0.407386
0.407321
0.407262
0.407201
0.407133
0.407057
0.406973
0.406883
0.406787
0.406686
0.406582
0.406473
0.406362
0.406249
0.406135
0.40602
0.405906
0.405792
0.405678
0.405567
0.405458
0.405351
0.405247
0.405146
0.405049
0.404957
0.404869
0.404785
0.404707
0.404633
0.404566
0.404504
0.404449
0.4044
0.404357
0.404322
0.404293
0.404271
0.404257
0.40425
0.404251
0.404259
0.404276
0.4043
0.404332
0.404372
0.40442
0.404476
0.404539
0.404611
0.40469
0.404778
0.404872
0.404975
0.405084
0.405201
0.405325
0.405455
0.405592
0.405736
0.405886
0.406042
0.406203
0.406371
0.406543
0.406721
0.406903
0.40709
0.407282
0.407477
0.407677
0.40788
0.408087
0.408298
0.408511
0.408728
0.408947
0.409169
0.409394
0.409621
0.409851
0.410083
0.410317
0.410553
0.410791
0.411031
0.411273
0.411516
0.411761
0.412007
0.412254
0.412502
0.41275
0.412998
0.413247
0.413495
0.413744
0.413991
0.414237
0.414482
0.414726
0.414968
0.415208
0.415446
0.415682
0.415915
0.416146
0.416375
0.416601
0.416823
0.417043
0.41726
0.417473
0.417683
0.417889
0.418092
0.418291
0.418485
0.418676
0.418863
0.419045
0.419222
0.419395
0.419563
0.419726
0.419884
0.420036
0.420184
0.420325
0.420461
0.420592
0.420716
0.420834
0.420946
0.421052
0.421151
0.421244
0.421329
0.421408
0.42148
0.421546
0.421604
0.421654
0.421698
0.421734
0.421762
0.421783
0.421797
0.421802
0.4218
0.421791
0.421774
0.421749
0.421716
0.421675
0.421627
0.421572
0.421508
0.421437
0.421359
0.421273
0.42118
0.421081
0.420974
0.42086
0.42074
0.420613
0.42048
0.420341
0.420196
0.420045
0.419888
0.419725
0.419556
0.419382
0.4192
0.419017
0.418811
0.418659
0.418344
0.411126
0.411058
0.410992
0.410922
0.410844
0.410756
0.410659
0.410555
0.410445
0.410328
0.410207
0.410082
0.409954
0.409824
0.409691
0.409558
0.409425
0.409292
0.40916
0.409029
0.408901
0.408775
0.408652
0.408532
0.408415
0.408303
0.408195
0.408092
0.407993
0.4079
0.407813
0.407731
0.407655
0.407586
0.407522
0.407466
0.407416
0.407373
0.407338
0.407309
0.407288
0.407274
0.407268
0.40727
0.407279
0.407296
0.40732
0.407353
0.407393
0.40744
0.407495
0.407558
0.407628
0.407706
0.40779
0.407882
0.407981
0.408086
0.408198
0.408316
0.408441
0.408571
0.408707
0.408849
0.408997
0.409149
0.409306
0.409469
0.409635
0.409806
0.409982
0.410161
0.410344
0.410531
0.410721
0.410915
0.411111
0.411311
0.411514
0.41172
0.411928
0.41214
0.412353
0.41257
0.412789
0.41301
0.413233
0.413458
0.413686
0.413915
0.414146
0.414378
0.41461
0.414844
0.415079
0.415314
0.415549
0.415784
0.416018
0.416251
0.416483
0.416715
0.416944
0.417173
0.417399
0.417624
0.417846
0.418067
0.418284
0.4185
0.418713
0.418923
0.419129
0.419333
0.419534
0.419731
0.419925
0.420114
0.4203
0.420482
0.42066
0.420833
0.421002
0.421167
0.421326
0.42148
0.42163
0.421774
0.421913
0.422046
0.422173
0.422295
0.42241
0.422519
0.422622
0.422719
0.422809
0.422892
0.422969
0.423038
0.423101
0.423156
0.423204
0.423245
0.423278
0.423304
0.423322
0.423332
0.423335
0.42333
0.423317
0.423296
0.423268
0.423231
0.423187
0.423135
0.423075
0.423008
0.422933
0.42285
0.42276
0.422663
0.422558
0.422447
0.422328
0.422203
0.422072
0.421934
0.42179
0.421639
0.421483
0.421321
0.421154
0.42098
0.420801
0.420614
0.420426
0.420216
0.420059
0.419739
0.415257
0.415186
0.415111
0.41503
0.414938
0.414835
0.414723
0.414602
0.414473
0.414338
0.414198
0.414052
0.413903
0.413752
0.413598
0.413444
0.413289
0.413134
0.412981
0.412828
0.412678
0.41253
0.412386
0.412244
0.412106
0.411972
0.411843
0.411718
0.411598
0.411483
0.411374
0.41127
0.411172
0.411081
0.410995
0.410916
0.410844
0.410778
0.41072
0.410668
0.410623
0.410586
0.410556
0.410533
0.410518
0.41051
0.41051
0.410516
0.410531
0.410553
0.410582
0.410618
0.410662
0.410712
0.41077
0.410834
0.410906
0.410983
0.411068
0.411158
0.411255
0.411357
0.411466
0.41158
0.411699
0.411824
0.411954
0.412088
0.412227
0.412371
0.412519
0.412672
0.412828
0.412988
0.413152
0.41332
0.413491
0.413666
0.413844
0.414025
0.414209
0.414397
0.414587
0.41478
0.414977
0.415176
0.415378
0.415582
0.415789
0.415998
0.416209
0.416421
0.416636
0.416852
0.41707
0.417288
0.417507
0.417726
0.417944
0.418163
0.418381
0.418599
0.418815
0.419031
0.419245
0.419458
0.419669
0.419879
0.420086
0.420292
0.420495
0.420696
0.420894
0.421089
0.421282
0.421471
0.421657
0.42184
0.422019
0.422195
0.422366
0.422534
0.422697
0.422856
0.42301
0.423159
0.423304
0.423443
0.423577
0.423706
0.423829
0.423946
0.424058
0.424163
0.424263
0.424355
0.424442
0.424522
0.424594
0.42466
0.424719
0.424771
0.424816
0.424853
0.424883
0.424905
0.424919
0.424926
0.424925
0.424917
0.4249
0.424875
0.424843
0.424803
0.424755
0.424699
0.424635
0.424563
0.424484
0.424397
0.424302
0.4242
0.424091
0.423975
0.423852
0.423722
0.423585
0.423442
0.423293
0.423138
0.422977
0.422809
0.422637
0.422458
0.422274
0.422083
0.42189
0.421677
0.421514
0.421192
0.419804
0.419727
0.419641
0.419546
0.419437
0.419316
0.419184
0.419041
0.41889
0.418731
0.418566
0.418396
0.418222
0.418045
0.417866
0.417686
0.417506
0.417326
0.417148
0.416971
0.416796
0.416624
0.416455
0.416289
0.416128
0.41597
0.415817
0.415669
0.415525
0.415387
0.415254
0.415127
0.415005
0.41489
0.414781
0.414678
0.414581
0.414491
0.414408
0.414331
0.414262