/*--------------------------------*- C++ -*----------------------------------*\
| =========                 |                                                 |
| \\      /  F ield         | OpenFOAM: The Open Source CFD Toolbox           |
|  \\    /   O peration     | Version:  4.1                                   |
|   \\  /    A nd           | Web:      www.OpenFOAM.org                      |
|    \\/     M anipulation  |                                                 |
\*---------------------------------------------------------------------------*/
FoamFile
{
    version     2.0;
    format      ascii;
    class       volScalarField;
    location    "0.055";
    object      T;
}
// * * * * * * * * * * * * * * * * * * * * * * * * * * * * * * * * * * * * * //

dimensions      [0 0 0 1 0 0 0];

internalField   nonuniform List<scalar> 
12225
(
0.625082
0.501659
0.482429
0.479445
0.478893
0.478746
0.478693
0.478669
0.478656
0.478646
0.478636
0.478618
0.478573
0.47846
0.478178
0.47748
0.475731
0.471269
0.617081
0.498208
0.480748
0.478495
0.478335
0.47841
0.478486
0.478541
0.478577
0.4786
0.478612
0.478608
0.478573
0.47847
0.478203
0.47754
0.475923
0.471993
0.621282
0.500687
0.482151
0.479347
0.478884
0.478769
0.478724
0.4787
0.478684
0.478673
0.478661
0.478641
0.478598
0.478493
0.478239
0.477633
0.476225
0.473107
0.621277
0.500416
0.481761
0.479003
0.478628
0.478587
0.478593
0.478605
0.478616
0.478622
0.478624
0.478615
0.478581
0.47849
0.478266
0.47774
0.476575
0.474195
0.621238
0.500487
0.481847
0.479071
0.47869
0.478643
0.47864
0.478643
0.478645
0.478646
0.478643
0.478632
0.478599
0.478516
0.47832
0.47788
0.476954
0.475197
0.621177
0.50051
0.481888
0.479083
0.478687
0.478637
0.478634
0.478637
0.478641
0.478643
0.478641
0.478631
0.478603
0.478533
0.47837
0.478017
0.477311
0.476049
0.621178
0.500547
0.481941
0.479115
0.478704
0.47865
0.478644
0.478646
0.478648
0.47865
0.478648
0.478639
0.478615
0.478556
0.478426
0.478154
0.477635
0.47675
0.621179
0.500558
0.481969
0.479137
0.478717
0.478659
0.478652
0.478652
0.478653
0.478654
0.478652
0.478645
0.478625
0.478576
0.478471
0.478259
0.477868
0.477221
0.621177
0.500563
0.481988
0.479156
0.478731
0.478669
0.47866
0.478659
0.478659
0.47866
0.478657
0.478651
0.478634
0.478594
0.478509
0.478344
0.478047
0.477567
0.621174
0.500565
0.482002
0.479173
0.478745
0.47868
0.478669
0.478667
0.478667
0.478666
0.478663
0.478658
0.478644
0.478612
0.478547
0.478424
0.478208
0.477867
0.621171
0.500564
0.482012
0.479188
0.478759
0.478692
0.47868
0.478676
0.478675
0.478673
0.47867
0.478665
0.478655
0.478631
0.478584
0.478496
0.478347
0.478116
0.621167
0.500561
0.482017
0.479198
0.478771
0.478704
0.47869
0.478686
0.478683
0.478681
0.478679
0.478674
0.478666
0.478649
0.478617
0.478558
0.47846
0.478313
0.621164
0.500557
0.482019
0.479205
0.47878
0.478714
0.4787
0.478696
0.478692
0.47869
0.478688
0.478683
0.478677
0.478666
0.478645
0.478608
0.478547
0.478459
0.621161
0.500553
0.482019
0.479209
0.478786
0.47872
0.478708
0.478704
0.478701
0.478698
0.478696
0.478693
0.478688
0.478681
0.478667
0.478646
0.478612
0.478562
0.621158
0.500549
0.482017
0.47921
0.478789
0.478725
0.478713
0.47871
0.478708
0.478706
0.478704
0.478701
0.478698
0.478693
0.478685
0.478673
0.478655
0.47863
0.621156
0.500546
0.482015
0.479209
0.47879
0.478728
0.478717
0.478714
0.478712
0.47871
0.478709
0.478708
0.478705
0.478702
0.478697
0.478691
0.478682
0.47867
0.621154
0.500544
0.482013
0.479208
0.47879
0.478728
0.478718
0.478716
0.478714
0.478714
0.478712
0.478711
0.478709
0.478708
0.478706
0.478702
0.478697
0.478692
0.621154
0.500543
0.482012
0.479208
0.47879
0.478728
0.478718
0.478715
0.478714
0.478714
0.478713
0.478712
0.478711
0.478709
0.478707
0.478705
0.478703
0.478701
0.621154
0.500543
0.482012
0.479207
0.478789
0.478728
0.478718
0.478714
0.478712
0.478712
0.47871
0.478709
0.478708
0.478707
0.478706
0.478704
0.478702
0.478702
0.621154
0.500544
0.482012
0.479207
0.478788
0.478725
0.478715
0.478711
0.478709
0.478707
0.478706
0.478705
0.478704
0.478703
0.478702
0.478701
0.4787
0.4787
0.621154
0.500545
0.482014
0.479206
0.478784
0.47872
0.478709
0.478705
0.478703
0.478701
0.478699
0.478698
0.478697
0.478697
0.478696
0.478695
0.478694
0.478694
0.621154
0.500547
0.482015
0.479204
0.47878
0.478714
0.478702
0.478698
0.478696
0.478694
0.478693
0.478692
0.478692
0.478691
0.478691
0.47869
0.478689
0.47869
0.621152
0.500551
0.482014
0.479195
0.478767
0.478701
0.478689
0.478685
0.478684
0.478683
0.478683
0.478682
0.478682
0.478683
0.478682
0.478682
0.478682
0.478683
0.621147
0.500559
0.482014
0.479187
0.478759
0.478694
0.478684
0.478681
0.478681
0.47868
0.47868
0.47868
0.478681
0.478681
0.478681
0.478681
0.478681
0.478682
0.621134
0.500551
0.481983
0.479149
0.478725
0.478665
0.478657
0.478657
0.478658
0.47866
0.478662
0.478664
0.478665
0.478667
0.478669
0.47867
0.478671
0.478673
0.621195
0.500594
0.48198
0.479154
0.478749
0.478696
0.478689
0.478687
0.478686
0.478685
0.478684
0.478682
0.478681
0.47868
0.47868
0.47868
0.478679
0.47868
0.621276
0.500532
0.481808
0.478971
0.478582
0.478548
0.478561
0.47858
0.478597
0.478611
0.478622
0.478631
0.478639
0.478645
0.478651
0.478655
0.478659
0.478661
0.621626
0.501078
0.482445
0.479563
0.479064
0.478923
0.47885
0.478804
0.478771
0.478747
0.47873
0.478716
0.478707
0.4787
0.478695
0.478691
0.47869
0.478684
0.617042
0.497852
0.480426
0.478232
0.478138
0.478261
0.478372
0.478454
0.478512
0.478553
0.478582
0.478604
0.47862
0.478632
0.478642
0.47865
0.478659
0.478657
0.625111
0.502056
0.482622
0.479575
0.479005
0.478839
0.47877
0.478733
0.478711
0.478697
0.478687
0.47868
0.478676
0.478673
0.478671
0.478671
0.478674
0.478662
0.263169
0.263152
0.263104
0.263036
0.262952
0.262848
0.262727
0.262588
0.262429
0.262254
0.262062
0.261856
0.261633
0.261396
0.261146
0.260882
0.260606
0.260319
0.260023
0.259717
0.259404
0.259085
0.25876
0.258432
0.258101
0.257769
0.257437
0.257107
0.25678
0.256457
0.256139
0.255829
0.255527
0.255235
0.254953
0.254684
0.254428
0.254187
0.253962
0.253753
0.253563
0.253391
0.253238
0.253106
0.252996
0.252907
0.252841
0.252797
0.252778
0.252782
0.25281
0.252862
0.252938
0.253039
0.253164
0.253313
0.253485
0.253681
0.253901
0.254142
0.254406
0.254691
0.254997
0.255323
0.255668
0.256032
0.256414
0.256812
0.257227
0.257657
0.258102
0.25856
0.25903
0.259512
0.260005
0.260508
0.26102
0.261541
0.262068
0.262602
0.263141
0.263685
0.264233
0.264784
0.265337
0.265892
0.266447
0.267002
0.267556
0.268109
0.268659
0.269206
0.269749
0.270287
0.27082
0.271348
0.271869
0.272383
0.27289
0.273389
0.273879
0.274361
0.274834
0.275297
0.27575
0.276193
0.276625
0.277047
0.277458
0.277857
0.278246
0.278622
0.278986
0.279339
0.279678
0.280005
0.280319
0.28062
0.280907
0.28118
0.28144
0.281684
0.281915
0.28213
0.28233
0.282514
0.282683
0.282835
0.282971
0.28309
0.283192
0.283277
0.283343
0.283392
0.283422
0.283433
0.283425
0.283397
0.283349
0.283282
0.283193
0.283083
0.282952
0.2828
0.282625
0.282427
0.282207
0.281964
0.281697
0.281406
0.281092
0.280752
0.280388
0.279999
0.279584
0.279144
0.278678
0.278186
0.277667
0.277122
0.276548
0.275948
0.275324
0.274661
0.27397
0.273252
0.272497
0.271715
0.270906
0.27007
0.269206
0.268316
0.267399
0.266455
0.265488
0.264498
0.263501
0.262475
0.261567
0.26022
0.263762
0.263738
0.263699
0.263641
0.263563
0.263466
0.26335
0.263215
0.26306
0.262886
0.262694
0.262485
0.262261
0.262021
0.261767
0.2615
0.261221
0.260932
0.260632
0.260324
0.260008
0.259686
0.259359
0.259029
0.258696
0.258362
0.258028
0.257696
0.257367
0.257042
0.256723
0.256411
0.256107
0.255813
0.25553
0.255259
0.255002
0.254759
0.254531
0.254321
0.254128
0.253954
0.253799
0.253665
0.253552
0.253461
0.253392
0.253346
0.253324
0.253325
0.25335
0.253399
0.253473
0.25357
0.253692
0.253838
0.254007
0.2542
0.254416
0.254654
0.254914
0.255196
0.255498
0.25582
0.256162
0.256523
0.256901
0.257296
0.257708
0.258135
0.258576
0.259031
0.259498
0.259977
0.260467
0.260967
0.261476
0.261993
0.262518
0.263049
0.263586
0.264128
0.264673
0.265222
0.265773
0.266326
0.266879
0.267432
0.267985
0.268536
0.269084
0.26963
0.270171
0.270709
0.271241
0.271767
0.272287
0.2728
0.273306
0.273804
0.274294
0.274774
0.275246
0.275709
0.276161
0.276603
0.277035
0.277456
0.277866
0.278265
0.278653
0.279029
0.279392
0.279744
0.280083
0.280409
0.280722
0.281022
0.281308
0.281581
0.281839
0.282083
0.282312
0.282526
0.282725
0.282908
0.283076
0.283227
0.283361
0.283479
0.28358
0.283662
0.283727
0.283774
0.283802
0.283812
0.283802
0.283772
0.283722
0.283652
0.283561
0.28345
0.283316
0.283161
0.282984
0.282784
0.282561
0.282315
0.282045
0.281752
0.281434
0.281092
0.280725
0.280332
0.279914
0.27947
0.279
0.278504
0.277981
0.277431
0.276853
0.276248
0.275619
0.274955
0.274267
0.273555
0.272811
0.272039
0.271239
0.270411
0.269555
0.268672
0.267762
0.266825
0.265865
0.264882
0.263891
0.262877
0.261947
0.260759
0.264961
0.264918
0.264869
0.264804
0.264721
0.264618
0.264495
0.264352
0.26419
0.264009
0.263811
0.263597
0.263367
0.263122
0.262863
0.262592
0.26231
0.262016
0.261713
0.261402
0.261084
0.260759
0.26043
0.260097
0.259762
0.259426
0.25909
0.258756
0.258425
0.258099
0.257778
0.257463
0.257158
0.256861
0.256576
0.256302
0.256042
0.255796
0.255566
0.255352
0.255156
0.254978
0.25482
0.254681
0.254564
0.254469
0.254395
0.254345
0.254317
0.254313
0.254333
0.254377
0.254445
0.254537
0.254653
0.254793
0.254956
0.255143
0.255353
0.255585
0.255839
0.256115
0.256411
0.256728
0.257064
0.257418
0.257791
0.258181
0.258587
0.259008
0.259444
0.259894
0.260357
0.260831
0.261317
0.261813
0.262318
0.262832
0.263353
0.263881
0.264416
0.264955
0.265499
0.266046
0.266596
0.267147
0.2677
0.268253
0.268806
0.269357
0.269907
0.270454
0.270997
0.271536
0.272071
0.2726
0.273123
0.273639
0.274148
0.274649
0.275143
0.275628
0.276103
0.27657
0.277027
0.277473
0.27791
0.278336
0.27875
0.279154
0.279546
0.279927
0.280296
0.280652
0.280996
0.281327
0.281645
0.28195
0.282241
0.282518
0.282782
0.28303
0.283264
0.283483
0.283686
0.283874
0.284045
0.284201
0.284339
0.284461
0.284565
0.284652
0.28472
0.28477
0.284801
0.284814
0.284806
0.284779
0.284732
0.284664
0.284575
0.284465
0.284333
0.28418
0.284003
0.283805
0.283583
0.283337
0.283068
0.282774
0.282457
0.282114
0.281746
0.281353
0.280934
0.280489
0.280018
0.27952
0.278995
0.278444
0.277865
0.277259
0.276626
0.275963
0.275274
0.274562
0.273819
0.273048
0.272249
0.271422
0.270567
0.269685
0.268775
0.267838
0.266877
0.265893
0.264897
0.263879
0.262921
0.261808
0.266744
0.266684
0.266625
0.266553
0.266462
0.266349
0.266216
0.266064
0.265894
0.265705
0.2655
0.265278
0.265041
0.26479
0.264525
0.264249
0.26396
0.263662
0.263354
0.263038
0.262715
0.262387
0.262053
0.261717
0.261378
0.261038
0.260699
0.260362
0.260027
0.259697
0.259372
0.259054
0.258744
0.258444
0.258154
0.257876
0.257611
0.257361
0.257125
0.256906
0.256704
0.25652
0.256355
0.256211
0.256087
0.255984
0.255904
0.255845
0.25581
0.255798
0.25581
0.255845
0.255905
0.255988
0.256095
0.256226
0.25638
0.256558
0.256758
0.256982
0.257227
0.257493
0.25778
0.258088
0.258415
0.258761
0.259125
0.259506
0.259904
0.260317
0.260745
0.261187
0.261643
0.26211
0.262589
0.263079
0.263578
0.264087
0.264603
0.265127
0.265657
0.266193
0.266733
0.267278
0.267826
0.268376
0.268928
0.269481
0.270034
0.270586
0.271137
0.271686
0.272232
0.272775
0.273313
0.273846
0.274373
0.274895
0.275409
0.275916
0.276415
0.276906
0.277389
0.277862
0.278326
0.27878
0.279223
0.279657
0.280079
0.280491
0.280891
0.28128
0.281656
0.282021
0.282373
0.282712
0.283039
0.283352
0.283651
0.283936
0.284208
0.284464
0.284706
0.284933
0.285144
0.285339
0.285518
0.285681
0.285826
0.285955
0.286066
0.286159
0.286234
0.28629
0.286327
0.286345
0.286343
0.286321
0.286278
0.286215
0.286131
0.286025
0.285896
0.285746
0.285573
0.285377
0.285157
0.284914
0.284647
0.284355
0.284038
0.283697
0.28333
0.282937
0.282519
0.282074
0.281602
0.281104
0.280579
0.280027
0.279447
0.278839
0.278205
0.277541
0.276851
0.276135
0.275391
0.274618
0.273817
0.272988
0.27213
0.271245
0.270333
0.269393
0.268428
0.267439
0.266435
0.265407
0.264426
0.263337
0.269109
0.269039
0.268971
0.268892
0.268792
0.268671
0.268529
0.268367
0.268187
0.267989
0.267774
0.267544
0.267299
0.267039
0.266767
0.266482
0.266187
0.265882
0.265567
0.265245
0.264917
0.264582
0.264243
0.263901
0.263558
0.263213
0.262868
0.262526
0.262186
0.261851
0.261521
0.261198
0.260882
0.260576
0.260281
0.259996
0.259725
0.259467
0.259225
0.258998
0.258788
0.258597
0.258424
0.25827
0.258137
0.258025
0.257935
0.257867
0.257821
0.257799
0.2578
0.257824
0.257872
0.257944
0.258039
0.258158
0.258301
0.258467
0.258655
0.258866
0.259099
0.259353
0.259628
0.259924
0.260239
0.260573
0.260925
0.261295
0.261682
0.262084
0.262502
0.262934
0.26338
0.263838
0.264308
0.264789
0.26528
0.265781
0.26629
0.266808
0.267332
0.267863
0.268399
0.268939
0.269484
0.270032
0.270582
0.271134
0.271687
0.27224
0.272792
0.273343
0.273892
0.274437
0.274979
0.275517
0.27605
0.276577
0.277097
0.277611
0.278117
0.278616
0.279106
0.279587
0.280059
0.280522
0.280974
0.281417
0.281848
0.282269
0.282679
0.283077
0.283464
0.283838
0.2842
0.28455
0.284886
0.285209
0.285519
0.285814
0.286095
0.286362
0.286613
0.28685
0.28707
0.287275
0.287463
0.287635
0.287789
0.287927
0.288046
0.288147
0.28823
0.288293
0.288338
0.288363
0.288368
0.288352
0.288315
0.288258
0.288179
0.288077
0.287954
0.287808
0.287639
0.287446
0.28723
0.286989
0.286724
0.286435
0.28612
0.285779
0.285414
0.285021
0.284603
0.284158
0.283687
0.283188
0.282662
0.282109
0.281527
0.280918
0.280282
0.279617
0.278925
0.278206
0.277458
0.276682
0.275879
0.275047
0.274187
0.273298
0.272382
0.271439
0.270469
0.269474
0.268461
0.267422
0.266422
0.26533
0.272074
0.271996
0.271921
0.271834
0.271726
0.271595
0.271443
0.271272
0.271081
0.270873
0.270649
0.270408
0.270153
0.269884
0.269602
0.269309
0.269005
0.268691
0.268369
0.268039
0.267703
0.267361
0.267015
0.266666
0.266315
0.265964
0.265613
0.265264
0.264917
0.264575
0.264238
0.263908
0.263585
0.263272
0.262968
0.262676
0.262397
0.26213
0.261879
0.261643
0.261423
0.261221
0.261038
0.260874
0.26073
0.260606
0.260504
0.260423
0.260365
0.260329
0.260317
0.260328
0.260362
0.260419
0.2605
0.260605
0.260732
0.260883
0.261057
0.261253
0.26147
0.26171
0.26197
0.262251
0.262551
0.26287
0.263208
0.263564
0.263937
0.264326
0.26473
0.265149
0.265582
0.266028
0.266486
0.266956
0.267437
0.267928
0.268428
0.268936
0.269453
0.269976
0.270506
0.271041
0.27158
0.272124
0.272672
0.273221
0.273773
0.274325
0.274877
0.275429
0.27598
0.276528
0.277074
0.277616
0.278154
0.278686
0.279213
0.279733
0.280247
0.280753
0.281251
0.281741
0.282222
0.282694
0.283156
0.283608
0.28405
0.284481
0.284901
0.28531
0.285708
0.286093
0.286466
0.286826
0.287174
0.287508
0.287829
0.288135
0.288427
0.288705
0.288968
0.289215
0.289446
0.289661
0.28986
0.290042
0.290206
0.290353
0.290482
0.290592
0.290684
0.290756
0.290809
0.290841
0.290854
0.290845
0.290816
0.290764
0.290691
0.290596
0.290477
0.290336
0.290171
0.289982
0.28977
0.289532
0.28927
0.288983
0.288669
0.28833
0.287966
0.287574
0.287156
0.286712
0.286239
0.28574
0.285213
0.284658
0.284075
0.283464
0.282826
0.282159
0.281464
0.280741
0.279991
0.279212
0.278405
0.27757
0.276707
0.275815
0.274895
0.273948
0.272973
0.271971
0.27095
0.2699
0.268883
0.267774
0.275654
0.275573
0.275491
0.275397
0.27528
0.27514
0.274978
0.274796
0.274595
0.274376
0.27414
0.273888
0.273622
0.273342
0.27305
0.272746
0.272432
0.272108
0.271776
0.271437
0.271091
0.270741
0.270386
0.270029
0.269669
0.269309
0.26895
0.268592
0.268237
0.267887
0.267541
0.267202
0.26687
0.266547
0.266234
0.265932
0.265642
0.265366
0.265103
0.264856
0.264625
0.264411
0.264214
0.264037
0.263879
0.263742
0.263625
0.26353
0.263457
0.263406
0.263377
0.263372
0.26339
0.26343
0.263494
0.263582
0.263692
0.263825
0.263981
0.264159
0.264359
0.26458
0.264822
0.265085
0.265368
0.26567
0.26599
0.266328
0.266684
0.267056
0.267444
0.267847
0.268265
0.268695
0.269139
0.269595
0.270063
0.270541
0.271029
0.271526
0.272031
0.272545
0.273066
0.273593
0.274125
0.274663
0.275205
0.27575
0.276298
0.276848
0.2774
0.277951
0.278502
0.279052
0.2796
0.280146
0.280687
0.281224
0.281756
0.282283
0.282803
0.283317
0.283822
0.28432
0.28481
0.285291
0.285762
0.286224
0.286676
0.287117
0.287548
0.287968
0.288376
0.288772
0.289157
0.289529
0.289887
0.290233
0.290566
0.290884
0.291188
0.291477
0.291751
0.292009
0.292252
0.292478
0.292688
0.29288
0.293056
0.293213
0.293352
0.293472
0.293573
0.293654
0.293716
0.293757
0.293777
0.293776
0.293754
0.29371
0.293643
0.293554
0.293441
0.293305
0.293144
0.29296
0.292751
0.292517
0.292257
0.291972
0.291661
0.291324
0.29096
0.29057
0.290152
0.289707
0.289234
0.288734
0.288205
0.287649
0.287064
0.286451
0.28581
0.285141
0.284443
0.283717
0.282963
0.282181
0.281371
0.280532
0.279666
0.27877
0.277847
0.276895
0.275915
0.274907
0.273878
0.272817
0.271785
0.270655
0.279881
0.279795
0.279707
0.279603
0.279477
0.279327
0.279155
0.278961
0.278748
0.278517
0.278269
0.278006
0.277727
0.277435
0.277131
0.276815
0.276489
0.276154
0.27581
0.27546
0.275103
0.274742
0.274377
0.274009
0.273639
0.273269
0.272899
0.272531
0.272166
0.271804
0.271448
0.271098
0.270756
0.270421
0.270097
0.269783
0.269481
0.269192
0.268916
0.268655
0.268411
0.268182
0.267972
0.267779
0.267606
0.267452
0.267319
0.267207
0.267116
0.267047
0.267001
0.266977
0.266975
0.266997
0.267041
0.267108
0.267198
0.267311
0.267446
0.267603
0.267782
0.267983
0.268204
0.268446
0.268708
0.268989
0.269289
0.269607
0.269942
0.270294
0.270663
0.271047
0.271445
0.271858
0.272284
0.272722
0.273173
0.273635
0.274108
0.27459
0.275082
0.275583
0.276091
0.276607
0.27713
0.277658
0.278192
0.27873
0.279273
0.279818
0.280365
0.280914
0.281463
0.282013
0.282561
0.283108
0.283651
0.284191
0.284727
0.285258
0.285784
0.286303
0.286815
0.287319
0.287816
0.288305
0.288784
0.289255
0.289716
0.290167
0.290607
0.291037
0.291456
0.291863
0.292258
0.292641
0.293011
0.293368
0.293711
0.294041
0.294356
0.294657
0.294942
0.295212
0.295466
0.295703
0.295924
0.296127
0.296313
0.29648
0.296629
0.296759
0.29687
0.296961
0.297031
0.297081
0.29711
0.297117
0.297102
0.297065
0.297005
0.296921
0.296815
0.296683
0.296528
0.296348
0.296143
0.295912
0.295656
0.295374
0.295064
0.294729
0.294366
0.293976
0.293559
0.293113
0.29264
0.292139
0.291609
0.291051
0.290464
0.289849
0.289206
0.288533
0.287833
0.287104
0.286347
0.285561
0.284747
0.283905
0.283035
0.282136
0.281209
0.280253
0.279268
0.278255
0.277218
0.276147
0.275102
0.27395
0.284779
0.28469
0.284594
0.284481
0.284344
0.284183
0.283999
0.283793
0.283568
0.283323
0.283062
0.282785
0.282493
0.282187
0.281869
0.281539
0.2812
0.280851
0.280494
0.280131
0.279761
0.279387
0.279009
0.278628
0.278246
0.277863
0.277481
0.277101
0.276723
0.276349
0.27598
0.275618
0.275262
0.274915
0.274577
0.274249
0.273933
0.273629
0.273338
0.273062
0.272802
0.272557
0.27233
0.27212
0.271929
0.271757
0.271605
0.271474
0.271363
0.271274
0.271207
0.271162
0.271139
0.271139
0.271161
0.271205
0.271272
0.271362
0.271473
0.271607
0.271762
0.271939
0.272136
0.272354
0.272591
0.272848
0.273124
0.273418
0.27373
0.274059
0.274404
0.274765
0.275141
0.275531
0.275936
0.276354
0.276784
0.277226
0.277679
0.278144
0.278618
0.279102
0.279595
0.280096
0.280605
0.281121
0.281643
0.282171
0.282703
0.28324
0.28378
0.284323
0.284868
0.285414
0.285959
0.286504
0.287047
0.287587
0.288124
0.288657
0.289184
0.289706
0.290222
0.290732
0.291234
0.291728
0.292214
0.292691
0.293159
0.293618
0.294066
0.294505
0.294932
0.295348
0.295753
0.296145
0.296525
0.296892
0.297246
0.297585
0.297911
0.298222
0.298518
0.298798
0.299062
0.29931
0.299541
0.299755
0.299951
0.300128
0.300287
0.300426
0.300546
0.300646
0.300725
0.300783
0.30082
0.300835
0.300827
0.300797
0.300743
0.300666
0.300565
0.300439
0.300289
0.300113
0.299912
0.299685
0.299431
0.299151
0.298845
0.29851
0.298149
0.29776
0.297342
0.296897
0.296423
0.295921
0.29539
0.29483
0.294242
0.293625
0.292978
0.292304
0.2916
0.290868
0.290108
0.289319
0.288502
0.287657
0.286783
0.285881
0.28495
0.28399
0.283001
0.281983
0.28094
0.279861
0.278804
0.277632
0.290381
0.290287
0.290182
0.290058
0.28991
0.289736
0.289539
0.28932
0.28908
0.288821
0.288545
0.288252
0.287945
0.287623
0.287289
0.286944
0.286589
0.286225
0.285852
0.285473
0.285089
0.284699
0.284306
0.283911
0.283514
0.283116
0.282719
0.282324
0.281932
0.281543
0.28116
0.280782
0.280411
0.280048
0.279695
0.279351
0.279018
0.278698
0.278391
0.278097
0.277819
0.277556
0.277309
0.27708
0.27687
0.276677
0.276505
0.276352
0.276219
0.276108
0.276018
0.275949
0.275902
0.275877
0.275874
0.275893
0.275935
0.275998
0.276083
0.27619
0.276318
0.276468
0.276638
0.276828
0.277038
0.277267
0.277515
0.277782
0.278066
0.278368
0.278686
0.27902
0.27937
0.279734
0.280113
0.280505
0.280911
0.281329
0.281759
0.282201
0.282653
0.283116
0.283589
0.284071
0.284562
0.28506
0.285566
0.286079
0.286598
0.287122
0.287651
0.288184
0.28872
0.289257
0.289796
0.290335
0.290873
0.29141
0.291944
0.292474
0.293001
0.293523
0.294039
0.29455
0.295053
0.29555
0.296039
0.29652
0.296993
0.297456
0.29791
0.298354
0.298788
0.299211
0.299622
0.300022
0.300409
0.300784
0.301146
0.301494
0.301829
0.302148
0.302453
0.302742
0.303015
0.303272
0.303512
0.303735
0.303939
0.304126
0.304293
0.304441
0.304569
0.304677
0.304764
0.30483
0.304874
0.304896
0.304895
0.304871
0.304824
0.304753
0.304657
0.304536
0.30439
0.304219
0.304021
0.303798
0.303547
0.303269
0.302965
0.302632
0.302272
0.301883
0.301466
0.301021
0.300547
0.300044
0.299512
0.298951
0.29836
0.297741
0.297093
0.296416
0.295709
0.294975
0.294211
0.29342
0.2926
0.291751
0.290875
0.289969
0.289035
0.288073
0.287081
0.286058
0.285011
0.283925
0.282859
0.28167
0.29672
0.296619
0.296504
0.296368
0.296206
0.296019
0.295807
0.295572
0.295316
0.295041
0.294747
0.294437
0.294112
0.293772
0.29342
0.293057
0.292683
0.2923
0.29191
0.291513
0.29111
0.290703
0.290292
0.289879
0.289465
0.28905
0.288636
0.288224
0.287814
0.287409
0.287008
0.286613
0.286224
0.285844
0.285473
0.285111
0.28476
0.284421
0.284094
0.283781
0.283483
0.2832
0.282932
0.282682
0.282449
0.282235
0.282039
0.281862
0.281706
0.281569
0.281454
0.281359
0.281285
0.281233
0.281203
0.281194
0.281207
0.281241
0.281297
0.281373
0.281471
0.28159
0.281729
0.281888
0.282067
0.282265
0.282482
0.282717
0.28297
0.28324
0.283527
0.28383
0.284148
0.284482
0.284831
0.285193
0.285569
0.285959
0.286361
0.286775
0.2872
0.287637
0.288084
0.288542
0.289009
0.289486
0.28997
0.290463
0.290963
0.29147
0.291982
0.292499
0.293021
0.293546
0.294073
0.2946
0.295129
0.295657
0.296183
0.296707
0.297228
0.297745
0.298257
0.298764
0.299266
0.299761
0.300249
0.30073
0.301202
0.301667
0.302123
0.302569
0.303005
0.303431
0.303847
0.304251
0.304643
0.305023
0.30539
0.305744
0.306084
0.30641
0.306721
0.307017
0.307297
0.30756
0.307807
0.308037
0.308248
0.308442
0.308616
0.308771
0.308906
0.309021
0.309115
0.309187
0.309238
0.309266
0.309271
0.309252
0.30921
0.309144
0.309053
0.308937
0.308795
0.308627
0.308433
0.308212
0.307965
0.307689
0.307386
0.307055
0.306696
0.306308
0.305892
0.305447
0.304972
0.304469
0.303936
0.303374
0.302782
0.302161
0.301511
0.300832
0.300123
0.299386
0.29862
0.297826
0.297004
0.296153
0.295274
0.294366
0.29343
0.292465
0.291471
0.290446
0.289395
0.288305
0.287232
0.286031
0.303833
0.303725
0.303598
0.303448
0.30327
0.303066
0.302837
0.302584
0.30231
0.302015
0.301701
0.30137
0.301024
0.300663
0.300289
0.299904
0.299509
0.299105
0.298693
0.298275
0.297851
0.297423
0.296991
0.296557
0.296123
0.295688
0.295254
0.294822
0.294392
0.293967
0.293546
0.293132
0.292724
0.292323
0.291932
0.29155
0.291178
0.290818
0.290471
0.290136
0.289815
0.28951
0.289219
0.288946
0.288689
0.288449
0.288228
0.288026
0.287842
0.287679
0.287535
0.287412
0.287309
0.287227
0.287166
0.287126
0.287107
0.287109
0.287132
0.287176
0.28724
0.287325
0.287429
0.287553
0.287697
0.287859
0.28804
0.288239
0.288456
0.28869
0.288941
0.289208
0.289491
0.289789
0.290102
0.29043
0.290771
0.291126
0.291495
0.291875
0.292269
0.292674
0.29309
0.293517
0.293955
0.294404
0.294861
0.295328
0.295803
0.296286
0.296775
0.297271
0.297773
0.298278
0.298787
0.299298
0.299811
0.300325
0.300837
0.301349
0.301858
0.302364
0.302867
0.303365
0.303859
0.304347
0.304829
0.305305
0.305773
0.306234
0.306687
0.307131
0.307566
0.307991
0.308406
0.30881
0.309203
0.309584
0.309953
0.310309
0.310651
0.31098
0.311294
0.311594
0.311878
0.312145
0.312396
0.31263
0.312847
0.313045
0.313224
0.313384
0.313524
0.313643
0.313742
0.313819
0.313874
0.313907
0.313917
0.313903
0.313865
0.313803
0.313716
0.313603
0.313465
0.3133
0.313109
0.312891
0.312645
0.312372
0.312071
0.311741
0.311383
0.310996
0.31058
0.310135
0.309661
0.309157
0.308623
0.30806
0.307468
0.306845
0.306194
0.305513
0.304803
0.304064
0.303297
0.302501
0.301676
0.300824
0.299943
0.299034
0.298097
0.29713
0.296135
0.295109
0.294057
0.292965
0.291888
0.290678
0.311761
0.311644
0.311503
0.311336
0.31114
0.310917
0.310667
0.310392
0.310095
0.309776
0.309438
0.309083
0.308711
0.308325
0.307926
0.307515
0.307094
0.306664
0.306227
0.305783
0.305334
0.304881
0.304426
0.303968
0.303509
0.303051
0.302594
0.302139
0.301687
0.301239
0.300796
0.300359
0.299929
0.299506
0.299092
0.298687
0.298293
0.29791
0.297539
0.29718
0.296835
0.296505
0.29619
0.29589
0.295607
0.29534
0.295091
0.294861
0.294648
0.294455
0.294281
0.294126
0.293992
0.293877
0.293783
0.293708
0.293654
0.293621
0.293607
0.293614
0.293641
0.293687
0.293753
0.293838
0.293941
0.294064
0.294205
0.294363
0.294539
0.294732
0.294942
0.295168
0.295409
0.295666
0.295939
0.296225
0.296526
0.296841
0.29717
0.297511
0.297866
0.298232
0.298611
0.299002
0.299405
0.299818
0.300242
0.300675
0.301119
0.301571
0.302031
0.302499
0.302973
0.303452
0.303936
0.304424
0.304914
0.305406
0.305898
0.30639
0.306881
0.30737
0.307857
0.30834
0.30882
0.309295
0.309765
0.31023
0.310688
0.31114
0.311584
0.312021
0.312449
0.312868
0.313277
0.313677
0.314066
0.314444
0.31481
0.315164
0.315505
0.315832
0.316146
0.316445
0.316729
0.316997
0.317249
0.317484
0.317702
0.317902
0.318083
0.318245
0.318388
0.31851
0.318611
0.318691
0.318749
0.318785
0.318797
0.318786
0.318751
0.318692
0.318607
0.318497
0.318361
0.318199
0.31801
0.317794
0.31755
0.317279
0.316979
0.31665
0.316293
0.315907
0.315492
0.315047
0.314573
0.314069
0.313535
0.312972
0.312378
0.311755
0.311103
0.310421
0.30971
0.30897
0.308201
0.307404
0.306579
0.305726
0.304844
0.303935
0.302997
0.302031
0.301036
0.30001
0.298959
0.297867
0.296789
0.295575
0.320549
0.32042
0.320263
0.320076
0.319858
0.31961
0.319335
0.319033
0.318708
0.31836
0.317993
0.317607
0.317204
0.316787
0.316356
0.315914
0.315462
0.315002
0.314534
0.314061
0.313582
0.3131
0.312616
0.312131
0.311645
0.311159
0.310676
0.310194
0.309717
0.309243
0.308775
0.308312
0.307857
0.307409
0.30697
0.30654
0.306121
0.305712
0.305315
0.304931
0.30456
0.304202
0.303859
0.303531
0.303219
0.302924
0.302645
0.302383
0.302139
0.301913
0.301706
0.301517
0.301347
0.301196
0.301065
0.300953
0.300861
0.300787
0.300734
0.300699
0.300684
0.300688
0.30071
0.300752
0.300811
0.300889
0.300984
0.301096
0.301226
0.301373
0.301535
0.301714
0.301909
0.302119
0.302344
0.302584
0.302838
0.303106
0.303388
0.303684
0.303993
0.304315
0.30465
0.304997
0.305356
0.305728
0.30611
0.306504
0.306908
0.307322
0.307745
0.308177
0.308616
0.309061
0.309513
0.309969
0.310429
0.310891
0.311355
0.311821
0.312286
0.31275
0.313214
0.313675
0.314134
0.314589
0.315041
0.315488
0.315929
0.316365
0.316795
0.317218
0.317633
0.31804
0.318439
0.318828
0.319208
0.319577
0.319936
0.320282
0.320617
0.320939
0.321247
0.321542
0.321822
0.322086
0.322335
0.322568
0.322784
0.322982
0.323162
0.323323
0.323465
0.323587
0.323688
0.323768
0.323827
0.323863
0.323876
0.323866
0.323833
0.323774
0.323691
0.323582
0.323447
0.323286
0.323099
0.322884
0.322641
0.32237
0.322072
0.321744
0.321388
0.321002
0.320587
0.320143
0.319669
0.319165
0.318632
0.318068
0.317475
0.316852
0.316199
0.315517
0.314805
0.314065
0.313296
0.312499
0.311674
0.31082
0.309939
0.30903
0.308094
0.307129
0.306136
0.305112
0.304063
0.302974
0.301898
0.300683
0.330246
0.330103
0.329925
0.329714
0.329468
0.329191
0.328883
0.328547
0.328186
0.327802
0.327397
0.326972
0.326531
0.326076
0.325607
0.325127
0.324637
0.32414
0.323636
0.323127
0.322614
0.322098
0.321581
0.321063
0.320545
0.320029
0.319514
0.319003
0.318496
0.317994
0.317497
0.317006
0.316523
0.316048
0.315581
0.315123
0.314676
0.314239
0.313814
0.313401
0.313
0.312613
0.31224
0.311882
0.311538
0.31121
0.310898
0.310603
0.310324
0.310063
0.309818
0.309592
0.309384
0.309193
0.309021
0.308868
0.308732
0.308616
0.308517
0.308437
0.308375
0.308332
0.308306
0.308298
0.308308
0.308335
0.308379
0.308441
0.308518
0.308612
0.308722
0.308848
0.308989
0.309146
0.309317
0.309503
0.309704
0.309919
0.310147
0.31039
0.310646
0.310916
0.311199
0.311495
0.311804
0.312126
0.31246
0.312805
0.313162
0.31353
0.313908
0.314295
0.31469
0.315094
0.315505
0.315921
0.316342
0.316767
0.317195
0.317625
0.318057
0.318489
0.318921
0.319353
0.319783
0.320211
0.320637
0.321059
0.321477
0.32189
0.322298
0.322701
0.323097
0.323486
0.323867
0.32424
0.324605
0.32496
0.325304
0.325638
0.325961
0.326272
0.32657
0.326855
0.327127
0.327383
0.327625
0.327851
0.328061
0.328253
0.328428
0.328585
0.328723
0.328842
0.32894
0.329017
0.329074
0.329108
0.329119
0.329108
0.329073
0.329014
0.32893
0.328821
0.328686
0.328525
0.328337
0.328123
0.32788
0.32761
0.327312
0.326984
0.326629
0.326244
0.325829
0.325385
0.324912
0.324408
0.323875
0.323312
0.322719
0.322096
0.321444
0.320762
0.320051
0.319311
0.318543
0.317746
0.316922
0.31607
0.31519
0.314283
0.313349
0.312386
0.311397
0.310377
0.309333
0.308248
0.307176
0.305964
0.340909
0.340747
0.340544
0.340301
0.340021
0.339704
0.339354
0.338974
0.338567
0.338135
0.337681
0.337209
0.336719
0.336215
0.335699
0.335172
0.334637
0.334095
0.333548
0.332997
0.332443
0.331887
0.331331
0.330776
0.330222
0.32967
0.329121
0.328576
0.328036
0.327501
0.326972
0.32645
0.325936
0.325429
0.324932
0.324443
0.323965
0.323498