/*--------------------------------*- C++ -*----------------------------------*\
| =========                 |                                                 |
| \\      /  F ield         | OpenFOAM: The Open Source CFD Toolbox           |
|  \\    /   O peration     | Version:  4.1                                   |
|   \\  /    A nd           | Web:      www.OpenFOAM.org                      |
|    \\/     M anipulation  |                                                 |
\*---------------------------------------------------------------------------*/
FoamFile
{
    version     2.0;
    format      ascii;
    class       volScalarField;
    location    "0.09";
    object      T;
}
// * * * * * * * * * * * * * * * * * * * * * * * * * * * * * * * * * * * * * //

dimensions      [0 0 0 1 0 0 0];

internalField   nonuniform List<scalar> 
12225
(
1.11552
1.23317
1.29917
1.34126
1.36974
1.38851
1.40119
1.41004
1.41642
1.42116
1.42479
1.42763
1.4299
1.43177
1.4333
1.43469
1.43581
1.43518
0.860947
0.707839
0.632408
0.594821
0.576427
0.569644
0.569414
0.572758
0.577971
0.584077
0.590513
0.596954
0.603214
0.609181
0.61481
0.619994
0.624958
0.628865
1.03458
1.08006
1.10414
1.11423
1.11556
1.11189
1.10559
1.09802
1.08996
1.08185
1.07398
1.06647
1.05942
1.05284
1.04677
1.04114
1.0362
1.0315
1.00165
0.998855
0.992981
0.988432
0.986044
0.98539
0.98593
0.9872
0.988859
0.990683
0.992533
0.994323
0.995998
0.997539
0.998939
1.00018
1.0013
1.00234
1.00023
1.00039
1.00026
1.00043
1.00067
1.0008
1.00084
1.0008
1.00072
1.00062
1.00051
1.00042
1.00033
1.00027
1.00023
1.00019
1.00021
1.00021
0.999584
0.999244
0.998899
0.998714
0.99862
0.998535
0.998453
0.99839
0.998342
0.998302
0.998271
0.998244
0.99822
0.998204
0.998189
0.998174
0.998175
0.998153
0.999929
1.00011
1.00016
1.00019
1.00023
1.00025
1.00026
1.00026
1.00026
1.00026
1.00026
1.00025
1.00024
1.00023
1.00022
1.00021
1.00021
1.00019
0.999971
1.00007
1.00006
1.00002
1.00001
1.00001
1.00001
1
1
1
1
1.00001
1.00002
1.00002
1.00002
1.00003
1.00003
1.00003
0.999979
1.00004
1.00003
1.00002
1.00002
1.00002
1.00002
1.00002
1.00002
1.00003
1.00003
1.00003
1.00003
1.00003
1.00003
1.00003
1.00003
1.00003
0.999978
1.00002
1.00001
0.999998
0.999998
1
0.999999
0.999997
0.999996
0.999997
0.999995
0.999996
1
0.999999
0.999995
1
0.999995
0.999997
0.999985
1.00001
1.00001
1
1
0.999997
0.999997
0.999997
1
1
1
0.999998
0.999997
1
1
1
0.999997
1
0.999988
1.00001
1.00001
0.999999
0.999997
0.999999
0.999998
0.999999
0.999998
0.999996
0.999996
0.999997
0.999999
0.999999
1
1
0.999996
1
0.999989
1.00001
1.00001
1
0.999999
0.999999
1
1
0.999999
0.999998
1
0.999998
0.999999
1
0.999999
1
0.999993
0.999997
0.999991
1
1.00001
1.00001
1
1
0.999997
0.999998
0.999999
0.999998
0.999996
0.999998
0.999997
0.999997
0.999997
0.999997
0.999994
1
0.999993
1
1.00001
1.00001
1
1
0.999998
0.999999
0.999999
0.999999
1
0.999999
0.999999
1
0.999995
0.999998
0.999992
0.999998
0.999994
1
1.00001
1
1
1
1
0.999999
0.999999
0.999997
0.999997
1
1
1
0.999999
0.999998
0.999993
0.999999
0.999993
1
1
1
1
1
1
1
0.999999
1
1
0.999999
0.999998
0.999999
1
1
0.999997
0.999999
0.999995
1
1
1.00001
1.00001
1.00001
1
1
1
1
1
1
1.00001
1.00001
1
1
0.999997
1
0.999995
1
1
1
1
1
1.00001
1
0.999999
1
1
1
0.999997
0.999995
0.999999
0.999997
0.999991
0.999995
0.999992
1
1
1
1
1
1.00001
1.00001
1.00001
1
1.00001
1.00001
1.00001
1.00001
1.00001
1.00001
1.00001
1.00002
0.999991
0.999999
1.00001
1
0.999996
0.999991
0.999991
0.999988
0.999986
0.999985
0.999981
0.999979
0.999975
0.999972
0.999972
0.999972
0.999964
0.999966
0.999988
1
1.00001
1.00001
1.00002
1.00002
1.00003
1.00004
1.00004
1.00005
1.00006
1.00006
1.00007
1.00007
1.00008
1.00008
1.00008
1.00009
0.999982
1
1
0.999974
0.999943
0.999921
0.9999
0.999878
0.99986
0.999842
0.999828
0.999815
0.999802
0.999795
0.999786
0.999779
0.99977
0.999767
0.999965
1.00007
1.00018
1.00024
1.0003
1.00037
1.00043
1.00049
1.00054
1.00058
1.00062
1.00065
1.00067
1.00069
1.00071
1.00072
1.00073
1.00074
0.999753
0.999568
0.999366
0.999131
0.998913
0.998704
0.998509
0.998342
0.998201
0.998088
0.998002
0.997936
0.997889
0.997856
0.997838
0.997829
0.997822
0.997814
0.999992
1.00043
1.00095
1.00167
1.00247
1.00316
1.00368
1.00405
1.00429
1.00442
1.00447
1.00446
1.0044
1.00432
1.00421
1.00409
1.00396
1.00386
0.999945
0.996247
0.990161
0.98452
0.980273
0.977358
0.975527
0.97452
0.974115
0.974128
0.974432
0.974931
0.975556
0.976259
0.977006
0.977763
0.978549
0.979195
1.0214
1.05634
1.0798
1.09471
1.10362
1.10848
1.11069
1.11118
1.11056
1.10922
1.10743
1.10537
1.10317
1.1009
1.09862
1.09638
1.09417
1.09224
0.922802
0.82784
0.774466
0.743959
0.725618
0.714657
0.708441
0.705217
0.70388
0.70374
0.704359
0.705454
0.70684
0.708395
0.710039
0.711701
0.713398
0.714943
1.06291
1.12901
1.16726
1.19166
1.20826
1.21975
1.22781
1.23361
1.2379
1.24113
1.24365
1.24564
1.24725
1.24858
1.24971
1.25063
1.25155
1.25214
3.31257e-18
2.64114e-18
-4.56281e-19
-9.01153e-19
-2.67506e-19
3.54795e-19
1.6172e-18
-4.78606e-18
-1.84584e-16
1.38598e-15
9.21842e-15
-4.54353e-14
-2.71635e-13
3.82705e-13
4.58557e-12
5.87193e-12
-2.95934e-11
-1.25409e-10
-1.33734e-10
4.04743e-10
1.93211e-09
3.74516e-09
2.57569e-09
-7.58908e-09
-3.27812e-08
-7.30809e-08
-1.15251e-07
-1.27542e-07
-6.03954e-08
1.44822e-07
5.39487e-07
1.14678e-06
1.94074e-06
2.83013e-06
3.65122e-06
4.17163e-06
4.10569e-06
3.1397e-06
9.64435e-07
-2.68885e-06
-8.01256e-06
-1.50906e-05
-2.38729e-05
-3.41579e-05
-4.55854e-05
-5.76384e-05
-6.96548e-05
-8.08493e-05
-9.03367e-05
-9.71636e-05
-0.000100347
-9.89124e-05
-9.19269e-05
-7.85404e-05
-5.80149e-05
-2.97547e-05
6.6713e-06
5.15106e-05
0.000104815
0.000166433
0.000236011
0.000312995
0.000396641
0.000486027
0.000580071
0.000677552
0.000777131
0.00087737
0.000976764
0.00107377
0.00116681
0.00125433
0.00133481
0.00140675
0.00146877
0.00151955
0.00155789
0.00158272
0.00159311
0.00158827
0.00156758
0.00153058
0.00147696
0.00140661
0.00131957
0.00121604
0.00109639
0.000961154
0.000810996
0.000646736
0.000469317
0.000279803
7.93696e-05
-0.000130707
-0.00034906
-0.000574245
-0.000804743
-0.00103897
-0.00127529
-0.001512
-0.00174739
-0.00197981
-0.00220803
-0.00243076
-0.00264692
-0.0028556
-0.00305609
-0.00324783
-0.0034305
-0.00360394
-0.00376819
-0.00392349
-0.00407027
-0.00420912
-0.00434084
-0.00446637
-0.00458681
-0.00470343
-0.00481761
-0.00493085
-0.00504477
-0.00516105
-0.00528146
-0.00540785
-0.00554205
-0.00568596
-0.00584145
-0.00601039
-0.0061946
-0.00639582
-0.00661573
-0.00685586
-0.00711765
-0.00740242
-0.00771133
-0.00804534
-0.00840527
-0.00879166
-0.00920484
-0.00964492
-0.0101118
-0.0106053
-0.0111247
-0.0116691
-0.0122375
-0.0128286
-0.013441
-0.0140724
-0.0147209
-0.0153844
-0.0160604
-0.0167461
-0.0174398
-0.0181389
-0.0188399
-0.0195407
-0.0202391
-0.0209321
-0.021614
-0.0222805
-0.0229373
-0.0236148
-0.0242908
-0.0248341
-0.0252768
-0.0255889
-0.0257815
-0.0259309
-0.026038
-0.026095
-0.0260979
-0.0260434
-0.0259286
-0.0257412
-0.0254766
-0.0250604
-0.0245563
-0.0233405
-0.0226936
-0.0158803
6.07222e-17
1.50811e-17
4.61248e-18
-4.73711e-18
-7.2905e-18
-2.11025e-17
-1.14351e-16
5.8127e-16
3.98494e-15
-9.81994e-15
-9.59686e-14
-3.8668e-14
1.19482e-12
3.42016e-12
-2.68517e-12
-3.68576e-11
-8.51853e-11
-3.28564e-13
5.19184e-10
1.58516e-09
2.27848e-09
-2.00396e-10
-1.01802e-08
-3.07212e-08
-5.82655e-08
-7.65725e-08
-5.34047e-08
5.63413e-08
2.98909e-07
7.02012e-07
1.25087e-06
1.86571e-06
2.38722e-06
2.57539e-06
2.12518e-06
6.99354e-07
-2.02353e-06
-6.29101e-06
-1.22145e-05
-1.97098e-05
-2.84478e-05
-3.78198e-05
-4.69234e-05
-5.45701e-05
-5.93158e-05
-5.95137e-05
-5.33856e-05
-3.9109e-05
-1.4913e-05
2.08209e-05
6.94564e-05
0.000132004
0.000209031
0.000300588
0.000406143
0.000524552
0.000654032
0.000792163
0.000935912
0.00108168
0.00122536
0.00136242
0.00148799
0.00159699
0.00168422
0.00174448
0.00177272
0.00176415
0.00171432
0.00161929
0.00147571
0.0012809
0.00103293
0.000730719
0.000374046
-3.63969e-05
-0.000498985
-0.00101116
-0.00156943
-0.00216942
-0.00280588
-0.00347277
-0.00416328
-0.00486993
-0.00558467
-0.00629892
-0.0070037
-0.00768973
-0.00834749
-0.00896736
-0.00953974
-0.0100551
-0.010504
-0.0108775
-0.0111667
-0.0113634
-0.0114599
-0.0114487
-0.0113234
-0.0110779
-0.0107068
-0.0102056
-0.00957129
-0.00880221
-0.00789706
-0.00685506
-0.00567588
-0.0043597
-0.00290711
-0.00131916
0.000402692
0.00225652
0.00423997
0.0063502
0.00858394
0.0109374
0.0134063
0.0159858
0.0186706
0.0214548
0.024332
0.0272952
0.0303368
0.0334486
0.036622
0.0398475
0.0431155
0.0464153
0.0497362
0.0530666
0.0563948
0.0597087
0.0629959
0.0662435
0.0694382
0.0725669
0.0756162
0.0785732
0.0814249
0.0841578
0.0867595
0.0892174
0.0915195
0.0936555
0.0956146
0.0973851
0.0989581
0.100327
0.101487
0.102427
0.103144
0.103642
0.103914
0.103955
0.103782
0.103374
0.102741
0.101904
0.1008
0.0995378
0.0980612
0.0961793
0.0940315
0.0918007
0.0890847
0.0855804
0.0816115
0.0774454
0.0731947
0.0688969
0.0645575
0.0601631
0.055686
0.051063
0.046209
0.040886
0.0349214
0.0271749
0.0183915
-0.0014333
1.33981e-16
-2.632e-19
6.0343e-17
6.74172e-17
2.55857e-17
-4.71984e-17
8.82501e-16
3.67336e-15
-1.06889e-14
-8.51936e-14
-4.11083e-14
9.60361e-13
2.94336e-12
-1.13276e-12
-2.79051e-11
-7.18859e-11
-2.34734e-11
3.68652e-10
1.25184e-09
1.97217e-09
2.53028e-10
-7.70633e-09
-2.49035e-08
-4.85e-08
-6.34929e-08
-3.8543e-08
7.16541e-08
3.14089e-07
7.14798e-07
1.24932e-06
1.81322e-06
2.2018e-06
2.10778e-06
1.14384e-06
-1.10759e-06
-5.01896e-06
-1.08236e-05
-1.85134e-05
-2.77408e-05
-3.77388e-05
-4.7271e-05
-5.46223e-05
-5.76365e-05
-5.38028e-05
-4.03903e-05
-1.46235e-05
2.61081e-05
8.40228e-05
0.000160711
0.000256903
0.000372261
0.000505202
0.000652755
0.000810484
0.000972461
0.0011313
0.00127827
0.00140342
0.00149586
0.00154396
0.00153568
0.00145893
0.00130189
0.00105336
0.000703152
0.000242393
-0.000336156
-0.00103784
-0.00186589
-0.00282125
-0.00390247
-0.00510564
-0.00642443
-0.00785011
-0.00937176
-0.0109764
-0.012649
-0.0143733
-0.0161314
-0.0179045
-0.0196734
-0.0214182
-0.0231192
-0.024757
-0.0263129
-0.0277688
-0.0291079
-0.030315
-0.0313761
-0.032279
-0.0330132
-0.03357
-0.0339424
-0.0341254
-0.0341153
-0.0339103
-0.03351
-0.032915
-0.0321269
-0.0311477
-0.029977
-0.0286021
-0.0270233
-0.0252394
-0.0232486
-0.0210487
-0.0186365
-0.0160081
-0.0131588
-0.0100835
-0.0067764
-0.00323095
0.000559641
0.00460254
0.00890513
0.0134749
0.018319
0.0234448
0.0288587
0.0345668
0.0405744
0.0468857
0.0535038
0.0604304
0.0676658
0.0752089
0.0830565
0.0912038
0.0996435
0.108367
0.117363
0.126618
0.136118
0.145843
0.155775
0.165892
0.17617
0.186583
0.197104
0.207705
0.218353
0.229019
0.239667
0.250266
0.260782
0.271179
0.281421
0.291476
0.301308
0.310884
0.320166
0.329132
0.337741
0.34597
0.353829
0.361221
0.368128
0.374636
0.380514
0.385921
0.390824
0.39495
0.398347
0.401108
0.40317
0.40434
0.404603
0.404075
0.402836
0.400936
0.398389
0.395179
0.391252
0.386461
0.380644
0.373137
0.363904
0.348906
0.333857
0.282845
-1.83867e-16
-2.50081e-16
-3.23868e-16
-2.77857e-16
-3.18825e-16
1.66715e-16
3.02284e-15
-6.4819e-16
-5.37015e-14
-1.18411e-13
3.61627e-13
2.20873e-12
2.54401e-12
-1.15489e-11
-5.2334e-11
-7.39329e-11
1.06047e-10
7.42142e-10
1.71399e-09
1.69842e-09
-2.4042e-09
-1.45191e-08
-3.57379e-08
-5.80666e-08
-5.7925e-08
6.17761e-09
1.86766e-07
5.28006e-07
1.03436e-06
1.63282e-06
2.13882e-06
2.23825e-06
1.49794e-06
-5.87032e-07
-4.50639e-06
-1.0613e-05
-1.89786e-05
-2.92458e-05
-4.04971e-05
-5.11661e-05
-5.901e-05
-6.11597e-05
-5.42583e-05
-3.46866e-05
1.13002e-06
5.63501e-05
0.000133301
0.000233049
0.000354984
0.000496441
0.000652403
0.000815295
0.000974893
0.00111836
0.00123044
0.00129377
0.00128929
0.00119684
0.000995772
0.000665679
0.000187115
-0.000457646
-0.00128391
-0.00230391
-0.00352623
-0.00495539
-0.00659151
-0.00843012
-0.0104622
-0.0126742
-0.0150485
-0.0175637
-0.0201952
-0.0229157
-0.0256964
-0.0285069
-0.0313168
-0.0340959
-0.0368154
-0.0394479
-0.041969
-0.0443564
-0.0465917
-0.0486599
-0.0505495
-0.0522527
-0.0537652
-0.0550863
-0.0562183
-0.0571659
-0.057936
-0.0585375
-0.0589801
-0.0592742
-0.0594303
-0.0594583
-0.0593675
-0.0591653
-0.0588581
-0.0584507
-0.0579481
-0.0573642
-0.0566987
-0.0559492
-0.0551107
-0.054176
-0.0531356
-0.0519778
-0.0506884
-0.049251
-0.0476471
-0.0458559
-0.0438545
-0.0416182
-0.0391202
-0.0363321
-0.033224
-0.029765
-0.0259228
-0.0216651
-0.0169589
-0.0117716
-0.00607156
0.000172264
0.00698916
0.0144064
0.0224488
0.0311385
0.0404938
0.050529
0.0612545
0.0726757
0.0847933
0.0976033
0.111097
0.125259
0.140071
0.155507
0.171537
0.188125
0.205233
0.222818
0.240832
0.259224
0.277939
0.296925
0.316123
0.335472
0.354913
0.374385
0.393832
0.413206
0.432423
0.451405
0.470211
0.488699
0.506769
0.524578
0.5419
0.558693
0.574919
0.590539
0.605571
0.61993
0.633572
0.646426
0.658441
0.669624
0.679979
0.689502
0.698182
0.705992
0.712887
0.718753
0.723523
0.72662
0.728401
0.725153
0.723192
0.694243
-3.06088e-15
7.39251e-16
9.36379e-16
8.94922e-16
7.20911e-16
1.95759e-15
5.21481e-15
-1.11899e-14
-9.32823e-14
-7.98252e-14
8.27018e-13
2.977e-12
9.93641e-13
-2.04569e-11
-6.61523e-11
-6.2924e-11
2.02975e-10
9.59508e-10
1.92057e-09
1.44428e-09
-3.88847e-09
-1.79658e-08
-4.09774e-08
-6.26525e-08
-5.55111e-08
2.70121e-08
2.41946e-07
6.33757e-07
1.19734e-06
1.83337e-06
2.30811e-06
2.23364e-06
1.08444e-06
-1.73764e-06
-6.78584e-06
-1.44047e-05
-2.45375e-05
-3.6531e-05
-4.89724e-05
-5.95923e-05
-6.52668e-05
-6.21436e-05
-4.59036e-05
-1.21595e-05
4.30276e-05
0.000122543
0.000227564
0.000356914
0.000506469
0.000668681
0.000832269
0.000982087
0.00109926
0.00116152
0.00114383
0.0010192
0.000759688
0.00033755
-0.000273492
-0.00109702
-0.00215269
-0.00345514
-0.00501306
-0.00682849
-0.00889638
-0.0112044
-0.0137333
-0.0164571
-0.0193438
-0.0223568
-0.0254556
-0.0285972
-0.0317376
-0.0348336
-0.0378433
-0.0407281
-0.0434533
-0.0459898
-0.0483139
-0.0504083
-0.0522621
-0.0538711
-0.0552369
-0.0563671
-0.0572742
-0.057975
-0.0584901
-0.0588422
-0.0590558
-0.0591561
-0.0591683
-0.0591168
-0.0590247
-0.0589129
-0.0588
-0.0587021
-0.0586325
-0.0586018
-0.0586189
-0.0586935
-0.058849
-0.0591005
-0.0594453
-0.0598817
-0.0604054
-0.0610103
-0.0616881
-0.0624279
-0.0632165
-0.0640379
-0.0648725
-0.0656979
-0.066488
-0.0672125
-0.0678374
-0.0683243
-0.0686302
-0.0687077
-0.0685055
-0.0679678
-0.0670355
-0.0656457
-0.0637332
-0.061231
-0.0580706
-0.0541839
-0.0495035
-0.0439641
-0.0375039
-0.0300657
-0.0215983
-0.012058
-0.00140884
0.010376
0.0233137
0.0374114
0.0526647
0.0690571
0.086561
0.105138
0.124739
0.145306
0.166769
0.18905
0.212063
0.235718
0.259924
0.284585
0.3096
0.334857
0.360244
0.385718
0.411177
0.436416
0.461516
0.486388
0.510837
0.534851
0.558356
0.581334
0.603735
0.6255
0.646616
0.667032
0.686726
0.705685
0.723884
0.741329
0.758021
0.773969
0.789176
0.80364
0.817362
0.830305
0.842514
0.853687
0.864381
0.872465
0.882327
0.88197
2.24705e-14
-2.30884e-16
-2.30666e-15
-3.42264e-15
-3.29533e-15
-1.01592e-15
2.24896e-15
-2.24514e-14
-1.14479e-13
-4.31576e-14
1.04938e-12
3.2019e-12
2.44746e-13
-2.31265e-11
-6.89856e-11
-6.08406e-11
2.12111e-10
9.70072e-10
1.94145e-09
1.55588e-09
-3.51299e-09
-1.72255e-08
-4.02942e-08
-6.35313e-08
-6.06465e-08
1.48279e-08
2.22457e-07
6.12668e-07
1.18832e-06
1.85535e-06
2.37482e-06
2.33445e-06
1.15939e-06
-1.82068e-06
-7.23965e-06
-1.55026e-05
-2.65515e-05
-3.96226e-05
-5.30392e-05
-6.4088e-05
-6.90264e-05
-6.32567e-05
-4.16881e-05
7.15339e-07
6.82239e-05
0.000163517
0.000286808
0.000435003
0.000600972
0.000773025
0.000934665
0.00106466
0.00113751
0.00112424
0.000993587
0.000713419
0.00025246
-0.000417951
-0.00132204
-0.00247792
-0.00389609
-0.00557832
-0.00751688
-0.00969425
-0.0120833
-0.0146483
-0.0173455
-0.0201252
-0.0229336
-0.0257144
-0.0284118
-0.0309721
-0.0333457
-0.0354891
-0.0373664
-0.0389503
-0.0402227
-0.041175
-0.0418081
-0.0421313
-0.0421621
-0.0419245
-0.0414477
-0.0407653
-0.0399132
-0.0389285
-0.0378484
-0.0367092
-0.0355452
-0.0343881
-0.0332668
-0.0322072
-0.0312323
-0.0303617
-0.0296122
-0.0289987
-0.0285332
-0.0282262
-0.0280862
-0.0281193
-0.0283253
-0.0286927
-0.0292272
-0.0299309
-0.0308067
-0.0318578
-0.033087
-0.0344968
-0.0360885
-0.037862
-0.0398149
-0.041942
-0.0442342
-0.0466778
-0.0492537
-0.051936
-0.0546915
-0.0574791
-0.0602478
-0.0629376
-0.0654783
-0.0677897
-0.0697818
-0.0713551
-0.0724021
-0.0728083
-0.0724534
-0.0712141
-0.0689658
-0.0655852
-0.0609537
-0.0549593
-0.0475016
-0.0384928
-0.0278603
-0.0155493
-0.00152466
0.0142267
0.0316949
0.0508475
0.0716306
0.0939694
0.117768
0.14291
0.169265
0.196682
0.225003
0.254069
0.283729
0.313808
0.344077
0.374446
0.404784
0.434863
0.464566
0.493763
0.522343
0.550225
0.577308
0.603521
0.6288
0.653092
0.676372
0.698608
0.719791
0.739919
0.758996
0.777043
0.794087
0.810163
0.825299
0.839525
0.852879
0.865361
0.877058
0.88777
0.898044
0.906328
0.916182
0.920246
-9.00789e-14
-8.60984e-15
4.34092e-15
1.08065e-14
1.20997e-14
1.36844e-14
1.5504e-14
-1.0216e-14
-1.00102e-13
-4.09103e-14
9.55144e-13
3.00899e-12
8.72995e-13
-1.91888e-11
-6.20288e-11
-6.84432e-11
1.42052e-10
7.94507e-10
1.76553e-09
1.86466e-09
-1.7524e-09
-1.30134e-08
-3.39874e-08
-5.90749e-08
-6.76508e-08
-1.89438e-08
1.45049e-07
4.82621e-07
1.01803e-06
1.69213e-06
2.30781e-06
2.48773e-06
1.66658e-06
-8.60046e-07
-5.81453e-06
-1.3741e-05
-2.47481e-05
-3.82239e-05
-5.25723e-05
-6.50295e-05
-7.16239e-05
-6.73291e-05
-4.64463e-05
-3.22074e-06
6.73327e-05
0.000168452
0.000300586
0.0004604
0.000639936
0.000826064
0.0010003
0.0011391
0.00121461
0.00119591
0.00105073
0.000747414
0.000257189
-0.00044363
-0.00137148
-0.00253373
-0.00392731
-0.00553797
-0.00734004
-0.00929714
-0.0113634
-0.0134851
-0.0156036
-0.0176576
-0.0195862
-0.0213319
-0.0228433
-0.0240771
-0.0250006
-0.0255923
-0.025843
-0.0257553
-0.0253433
-0.0246309
-0.0236508
-0.0224418
-0.0210471
-0.0195123
-0.0178827
-0.0162025
-0.0145123
-0.0128485
-0.0112426
-0.00972054
-0.00830275
-0.00700435
-0.00583585
-0.00480354
-0.00391041
-0.00315692
-0.00254181
-0.0020629
-0.00171771
-0.00150374
-0.00141746
-0.0014479
-0.00156831
-0.00178635
-0.00210657
-0.00253714
-0.00308839
-0.00377314
-0.00460652
-0.0056059
-0.00679056
-0.00818129
-0.00979983
-0.011668
-0.0138068
-0.0162349
-0.0189675
-0.022014
-0.0253766
-0.0290475
-0.0330073
-0.0372223
-0.0416424
-0.0461994
-0.0508053
-0.055352
-0.0597107
-0.0637324
-0.06725
-0.0700811
-0.0720296
-0.0728903
-0.0724548
-0.0705162
-0.0668756
-0.0613481
-0.0537692
-0.044001
-0.0319364
-0.0175027
-0.000665259
0.0185689
0.0401527
0.0639993
0.0899839
0.117946
0.147702
0.179029
0.211685
0.245412
0.279978
0.315125
0.350562
0.386049
0.421348
0.45623
0.490509
0.524003
0.556542
0.587996
0.618248
0.64721
0.674815
0.701012
0.725778
0.749096
0.770975
0.791432
0.810497
0.828211
0.844623
0.85979
0.873769
0.886614
0.898381
0.909099
0.918872
0.927543
0.935649
0.941774
0.949286
0.951422
3.30658e-13
6.08299e-14
-6.79218e-17
-3.30758e-14
-4.42078e-14
-4.4254e-14
-3.91852e-14
-5.27991e-14
-1.23423e-13
-1.14694e-13
5.95477e-13
2.39614e-12
1.94503e-12
-1.15528e-11
-4.70066e-11
-7.19288e-11
4.36383e-11
5.10801e-10
1.37858e-09
1.97617e-09
2.58876e-10
-7.23279e-09
-2.37117e-08
-4.78899e-08
-6.73884e-08
-5.21253e-08
4.76786e-08
2.92806e-07
7.30323e-07
1.35124e-06
2.03561e-06
2.49836e-06
2.2566e-06
6.43345e-07
-3.10983e-06
-9.70736e-06
-1.95444e-05
-3.24047e-05
-4.71466e-05
-6.14388e-05
-7.16179e-05
-7.27358e-05
-5.88488e-05
-2.35754e-05
3.90926e-05
0.000133778
0.000262601
0.000424077
0.000612183
0.000815724
0.00101814
0.00119785
0.00132915
0.00138366
0.00133233
0.00114767
0.000806249
0.000291113
-0.000406097
-0.00128348
-0.00232787
-0.00351467
-0.00480847
-0.00616456
-0.00753129
-0.00885275
-0.0100722
-0.0111352
-0.0119934
-0.012607
-0.0129472
-0.0129978
-0.012756
-0.0122322
-0.0114492
-0.0104399
-0.00924563
-0.00791312
-0.00649169
-0.00503058
-0.00357626
-0.00217034
-0.000847866
0.000363632
0.00144476
0.00238414
0.00317793
0.00382888
0.00434532
0.00473973
0.00502756
0.00522592
0.00535241
0.00542414
0.00545692
0.00546465
0.00545878
0.00544837
0.00544105
0.00544788
0.00545859
0.00547281
0.00548547
0.00549005
0.00547741
0.00543545
0.0053487
0.00519778
0.00495886
0.00460332
0.00409744
0.00340248
0.00247492
0.00126729
-0.00027047
-0.00218913
-0.00453754
-0.00735941
-0.0106894
-0.0145487
-0.0189401
-0.0238433
-0.0292099
-0.0349594
-0.0409756
-0.0471048
-0.0531554
-0.0588996
-0.0640776
-0.0684016
-0.071563
-0.0732423
-0.0731193
-0.0708841
-0.0662478
-0.0589535
-0.0487962
-0.0356202
-0.019327
0.000115832
0.0226748
0.0482485
0.0766745
0.107729
0.141153
0.176633
0.213819
0.252355
0.291861
0.331965
0.372301
0.412525
0.452316
0.491372
0.529433
0.566272
0.601696
0.635555
0.66773
0.698137
0.726723
0.753464
0.778363
0.80144
0.822742
0.842323
0.860251
0.876609
0.891481
0.904953
0.917117
0.92806
0.937866
0.946596
0.954379
0.961106
0.967318
0.971747
0.977523
0.978788
-1.28223e-12
-3.13035e-13
-5.71778e-14
9.19342e-14
1.56066e-13
1.76719e-13
1.79203e-13
1.6209e-13
9.78417e-14
4.21762e-14
3.98229e-13
1.70804e-12
2.55572e-12
-4.01373e-12
-2.81826e-11
-6.10248e-11
-2.9242e-11
2.30013e-10
8.66839e-10
1.67038e-09
1.49886e-09
-2.15019e-09
-1.26515e-08
-3.18799e-08
-5.54197e-08
-6.61133e-08
-2.87185e-08
1.09507e-07
4.0647e-07
8.96552e-07
1.54511e-06
2.19264e-06
2.5033e-06
1.94008e-06
-2.07993e-07
-4.72371e-06
-1.22725e-05
-2.31323e-05
-3.68697e-05
-5.20154e-05
-6.58054e-05
-7.40674e-05
-7.13209e-05
-5.11415e-05
-6.80381e-06
6.78268e-05
0.000177231
0.00032312
0.000503415
0.000711489
0.000935813
0.00116012
0.00136419
0.00152516
0.00161939
0.00162469
0.00152266
0.00130099
0.00095536
0.000490847
-7.75042e-05
-0.000724954
-0.00141825
-0.00211769
-0.00277982
-0.00336064
-0.00381898
-0.00411972
-0.00423667
-0.00415465
-0.00387072
-0.00339449
-0.0027473
-0.00196064
-0.00107362
-0.000130043
0.000824742
0.00174705
0.00259769
0.00334425
0.00396276
0.00443855
0.00476628
0.00494934
0.00499863
0.00493101
0.00476733
0.00453068
0.0042446
0.00393164
0.00361226
0.00330407
0.00302141
0.0027755
0.00257453
0.00242413
0.00232777
0.00228697
0.00229994
0.00234957
0.00243503
0.00255794
0.00271949
0.00292086
0.00316254
0.00344378
0.00376172
0.00411029
0.00447903
0.00485159
0.00520415
0.005504
0.00570811
0.00576217
0.00560037
0.00514605
0.00431357
0.0030117
0.00114833
-0.00136339
-0.00459728
-0.00860512
-0.0134073
-0.0189836
-0.025264
-0.0321219
-0.0393685
-0.0467508
-0.0539551
-0.0606166
-0.0663237
-0.0706332
-0.0730883
-0.0732358
-0.0706502
-0.064931
-0.0557598
-0.0428919
-0.0261661
-0.00551888
0.0190143
0.0472961
0.0790986
0.114113
0.151954
0.192183
0.234324
0.277878
0.322338
0.367209
0.412012
0.456305
0.499689
0.54181
0.582368
0.62112
0.657873
0.692489
0.724875
0.754982
0.782804
0.808367
0.831727
0.852959
0.87216
0.889444
0.904925
0.918728
0.93098
0.941807
0.951332
0.959666
0.966927
0.973199
0.978631
0.983149
0.987279
0.989888
0.993859
0.994111
5.05719e-12
1.46381e-12
4.14997e-13
-2.23697e-13
-5.42539e-13
-6.68367e-13
-6.96634e-13
-6.7975e-13
-6.667e-13
-6.72108e-13
-5.09434e-13
2.86949e-13
1.55639e-12
-3.50361e-14
-1.2425e-11
-3.962e-11
-5.39906e-11
4.00219e-11
3.95579e-10
1.06918e-09
1.65088e-09
7.70756e-10
-4.12005e-09
-1.59732e-08
-3.55775e-08
-5.68933e-08
-6.11976e-08
-1.27473e-08
1.39547e-07
4.49125e-07
9.43357e-07
1.57947e-06
2.19106e-06
2.43943e-06
1.79085e-06
-4.55259e-07
-5.06505e-06
-1.26836e-05
-2.35681e-05
-3.72688e-05
-5.23078e-05
-6.59234e-05
-7.39568e-05
-7.0949e-05
-5.04928e-05
-5.85138e-06
6.91962e-05
0.000179366
0.000326864
0.000510511
0.000725162
0.000961549
0.00120664
0.00144454
0.0016579
0.00182967
0.00194509
0.0019936
0.00197047
0.00187794
0.00172563
0.00153013
0.00131386
0.00110309
0.000925485
0.00080734
0.000770805
0.000831435
0.000996335
0.00126313
0.00161987
0.0020459
0.00251364
0.00299105
0.00344451
0.00384187
0.00415526
0.00436339
0.00445326
0.00442084
0.00427099
0.00401647
0.00367631
0.00327368
0.0028336
0.00238067
0.00193715
0.00152143
0.00114716
0.000822931
0.000552548
0.000335697
0.000168965
4.69854e-05
-3.64239e-05
-8.7272e-05
-0.000110799
-0.000112009
-0.000100259
-7.66751e-05
-3.85613e-05
1.73836e-05
9.60129e-05
0.000203624
0.000348006
0.000538235
0.000784222
0.00109585
0.0014816
0.00194664
0.00249024
0.00310272
0.00376195
0.00442987
0.00504929
0.00554161
0.00580604
0.00572108
0.00514954
0.00394651
0.00196802
-0.000914743
-0.00480024
-0.00974021
-0.0157239
-0.022664
-0.0303865
-0.0386226
-0.047
-0.0550717
-0.0623147
-0.0681515
-0.0719772
-0.0731836
-0.0712082
-0.0655197
-0.0556968
-0.041427
-0.0225211
0.00107327
0.0292668
0.0618359
0.0984352
0.138613
0.18183
0.227486
0.27494
0.323542
0.372649
0.42165
0.469976
0.517121
0.562647
0.606186
0.647448
0.686217
0.722347
0.755756
0.786415
0.814353
0.839638
0.862371
0.882681
0.900711
0.916618
0.930573
0.942739
0.953282
0.962361
0.970133
0.976742
0.982317
0.98699
0.990854
0.99406
0.996554
0.99883
0.999858
1.00228
1.00157
-2.01429e-11
-6.55005e-12
-2.27592e-12
3.89464e-13
1.85865e-12
2.52813e-12
2.76865e-12
2.77597e-12
2.65315e-12
2.44628e-12
2.24821e-12
2.35158e-12
3.06745e-12
3.47068e-12
-6.76702e-13
-1.60519e-11
-4.02705e-11
-3.56854e-11
9.49431e-11
4.78202e-10
1.10741e-09
1.50664e-09
3.26913e-10
-4.76946e-09
-1.63301e-08
-3.47903e-08
-5.43657e-08
-5.79253e-08
-1.31143e-08
1.26455e-07
4.10303e-07
8.66619e-07
1.4635e-06
2.06058e-06
2.36273e-06
1.8942e-06
1.56158e-08
-3.99503e-06
-1.0784e-05
-2.06879e-05
-3.34452e-05
-4.78967e-05
-6.17338e-05
-7.13633e-05
-7.19513e-05
-5.76899e-05
-2.2296e-05
4.02884e-05
0.00013507
0.000265161
0.00043106
0.000630172
0.000856699
0.00110195
0.00135508
0.0016042
0.00183775
0.00204587
0.00222171
0.00236239
0.00246943
0.00254865
0.00260935
0.00266313
0.00272209
0.00279706
0.00289573
0.00302127
0.00317135
0.00333796
0.00350795
0.00366431
0.00378799
0.00386015
0.00386442
0.00378904
0.00362838
0.00338389
0.00306418
0.00268422
0.00226389
0.00182589
0.00139345
0.00098801
0.00062722
0.000323528
8.34399e-05
-9.24559e-05
-0.000208771
-0.000274088
-0.000299436
-0.000296728
-0.000277391
-0.000251352
-0.00022645
-0.000208241
-0.000200085
-0.000203272
-0.00021004
-0.000221353
-0.000236483
-0.000254278
-0.000272358
-0.000286605
-0.000290446
-0.000274173
-0.000224416
-0.000124048
4.72181e-05
0.000311212
0.000688456
0.00119396
0.00183176
0.00258858
0.00342725
0.00428092
0.0050489
0.0055948
0.00574631
0.00531299
0.00409194
0.00188802
-0.00146367
-0.00607311
-0.0119707
-0.0190855
-0.0272285
-0.0360892
-0.0452104
-0.0540309
-0.0618912
-0.0680629
-0.071788
-0.0723182
-0.068957
-0.0611076
-0.0483003
-0.0302224
-0.00673588
0.0221137
0.0560999
0.09483
0.137768
0.184262
0.233574
0.284915
0.337481
0.390483
0.443176
0.494875
0.54498
0.592983
0.638473
0.68114
0.720765
0.757225
0.790472
0.82053
0.847476
0.871441
0.892588
0.9111
0.927188
0.94106
0.952932
0.963011
0.971496
0.978583
0.984447
0.98925
0.993141
0.996247
0.998696
1.00058
1.00202
1.00298
1.00391
1.00384
1.0052
1.00387
8.11797e-11
2.86106e-11
1.1193e-11
1.94636e-13
-6.30755e-12
-9.55439e-12
-1.09442e-11
-1.12667e-11
-1.10087e-11
-1.04641e-11
-9.80555e-12
-9.03745e-12
-7.9443e-12
-6.45116e-12
-5.90367e-12
-1.05262e-11
-2.54135e-11
-4.51551e-11
-3.16942e-11
1.02624e-10
4.63496e-10
1.03435e-09
1.3974e-09
3.98234e-10
-3.97189e-09
-1.40009e-08
-3.04509e-08
-4.92517e-08
-5.7149e-08
-2.79295e-08
7.78442e-08
3.05756e-07
6.8952e-07
1.22045e-06
1.80685e-06
2.23139e-06
2.12039e-06
9.43401e-07
-1.93825e-06
-7.1597e-06
-1.51744e-05
-2.60222e-05
-3.90731e-05
-5.27935e-05
-6.45895e-05
-7.078e-05
-6.67417e-05
-4.72406e-05
-6.93163e-06
5.90233e-05
0.000154303
0.00028084
0.000438397
0.000624392
0.000834023
0.00106069
0.00129666
0.0015339
0.00176494
0.00198359
0.0021855
0.00236831
0.0025315
0.00267588
0.00280285
0.00291347
0.00300767
0.00308359
0.00313731
0.00316293
0.0031532
0.0031005
0.00299804
0.00284122
0.00262883
0.00236395
0.00205428
0.00171196
0.00135274
0.000994508
0.000655598
0.000352807
9.96028e-05
-9.53039e-05
-0.000228784
-0.000303365
-0.000326551
-0.000309507
-0.000265308
-0.000207055
-0.000146192
-9.1286e-05
-4.74852e-05
-1.66889e-05
1.6818e-06
9.69973e-06
1.07001e-05
8.95619e-06
4.61014e-06
-3.47311e-06
-1.66919e-05
-3.67789e-05
-6.53033e-05
-0.000102853
-0.000147747
-0.000194555
-0.000232519
-0.000244279
-0.000205454
-8.56436e-05
0.00014861
0.000528607
0.00107602
0.00179364
0.00265536
0.0035968
0.00450864
0.0052376
0.00557527
0.00528842
0.00412758
0.00185345
-0.0017318
-0.00675118
-0.0132204
-0.0210203
-0.0298775
-0.0393551
-0.0488627
-0.0576734
-0.0649578
-0.0698286
-0.0713935
-0.0688091
-0.0613367
-0.04839
-0.0295718
-0.00470053
0.0261791
0.0627994
0.104685
0.151185
0.201508
0.254762
0.310003
0.366278
0.422661
0.478292
0.532402
0.584328
0.633532
0.679601
0.722242
0.761281
0.796648
0.828367
0.856531
0.881301
0.902881
0.921506
0.93743
0.950916
0.962229
0.971621
0.979337
0.985603
0.990626
0.994596
0.997682
1.00003
1.00176
1.003
1.00384
1.00436
1.00465
1.00466
1.00479
1.00414
1.00492
1.00333
-3.30277e-10
-1.23314e-10
-5.20713e-11
-6.86616e-12
2.12544e-11
3.62318e-11
4.33608e-11
4.57825e-11
4.55062e-11
4.37285e-11
4.11799e-11
3.83326e-11
3.55995e-11
3.33602e-11
3.16332e-11
2.90138e-11
2.16339e-11
5.19932e-12
-1.53646e-11
-7.74579e-12
1.02479e-10
4.10768e-10
9.29991e-10
1.37432e-09
8.75098e-10
-2.18933e-09
-9.9054e-09
-2.36422e-08
-4.16557e-08
-5.56064e-08
-4.69302e-08
1.49638e-08
1.69787e-07
4.55627e-07
8.88174e-07
1.43023e-06
1.95578e-06
2.21748e-06
1.83067e-06
2.88875e-07
-2.97603e-06
-8.48213e-06
-1.65377e-05
-2.70502e-05
-3.93335e-05
-5.19518e-05
-6.26416e-05
-6.83454e-05
-6.53784e-05
-4.97245e-05
-1.74352e-05
3.49159e-05
0.000109789
0.000208313
0.000330048
0.000472938
0.000633433
0.00080678
0.00098743
0.00116949
0.00134715
0.00151502
0.00166832
0.00180292
0.00191529
0.00200227
0.00206098
0.00208864
0.0020826
0.00204052
0.00196069
0.00184252
0.00168701
0.00149728
0.00127883
0.00103963
0.000789839
0.000541206
0.000306118
9.64525e-05
-7.7658e-05
-0.000208977
-0.000294038
-0.000333586
-0.000332505
-0.000299148
-0.000244207
-0.00017924
-0.000115095
-6.04751e-05
-2.08625e-05
2.04428e-06
1.02962e-05
9.00086e-06
4.8378e-06
3.36985e-06
4.22888e-06
4.96469e-06
5.85661e-06