/*--------------------------------*- C++ -*----------------------------------*\
| =========                 |                                                 |
| \\      /  F ield         | OpenFOAM: The Open Source CFD Toolbox           |
|  \\    /   O peration     | Version:  4.1                                   |
|   \\  /    A nd           | Web:      www.OpenFOAM.org                      |
|    \\/     M anipulation  |                                                 |
\*---------------------------------------------------------------------------*/
FoamFile
{
    version     2.0;
    format      ascii;
    class       volScalarField;
    location    "0.025";
    object      T;
}
// * * * * * * * * * * * * * * * * * * * * * * * * * * * * * * * * * * * * * //

dimensions      [0 0 0 1 0 0 0];

internalField   nonuniform List<scalar> 
12225
(
1.11552
1.23317
1.29917
1.34126
1.36974
1.38851
1.40119
1.41004
1.41642
1.42116
1.42479
1.42763
1.4299
1.43177
1.4333
1.43469
1.43581
1.43518
0.860947
0.707839
0.632408
0.594821
0.576427
0.569644
0.569414
0.572758
0.577971
0.584077
0.590513
0.596954
0.603214
0.609181
0.61481
0.619994
0.624958
0.628865
1.03458
1.08006
1.10414
1.11423
1.11556
1.11189
1.10559
1.09802
1.08996
1.08185
1.07398
1.06647
1.05942
1.05284
1.04677
1.04114
1.0362
1.0315
1.00165
0.998855
0.992981
0.988432
0.986044
0.98539
0.98593
0.9872
0.988859
0.990683
0.992533
0.994323
0.995998
0.997539
0.998939
1.00018
1.0013
1.00234
1.00023
1.00039
1.00026
1.00043
1.00067
1.0008
1.00084
1.0008
1.00072
1.00062
1.00051
1.00042
1.00033
1.00027
1.00023
1.00019
1.00021
1.00021
0.999584
0.999244
0.998899
0.998714
0.99862
0.998535
0.998453
0.99839
0.998342
0.998302
0.998271
0.998244
0.99822
0.998204
0.998189
0.998174
0.998175
0.998153
0.999929
1.00011
1.00016
1.00019
1.00023
1.00025
1.00026
1.00026
1.00026
1.00026
1.00026
1.00025
1.00024
1.00023
1.00022
1.00021
1.00021
1.00019
0.999971
1.00007
1.00006
1.00002
1.00001
1.00001
1.00001
1
1
1
1
1.00001
1.00002
1.00002
1.00002
1.00003
1.00003
1.00003
0.999979
1.00004
1.00003
1.00002
1.00002
1.00002
1.00002
1.00002
1.00002
1.00003
1.00003
1.00003
1.00003
1.00003
1.00003
1.00003
1.00003
1.00003
0.999978
1.00002
1.00001
0.999998
0.999998
1
0.999999
0.999997
0.999996
0.999997
0.999995
0.999996
1
0.999999
0.999995
1
0.999995
0.999997
0.999985
1.00001
1.00001
1
1
0.999997
0.999997
0.999997
1
1
1
0.999998
0.999997
1
1
1
0.999997
1
0.999988
1.00001
1.00001
0.999999
0.999997
0.999999
0.999998
0.999999
0.999998
0.999996
0.999996
0.999997
0.999999
0.999999
1
1
0.999996
1
0.999989
1.00001
1.00001
1
0.999999
0.999999
1
1
0.999999
0.999998
1
0.999998
0.999999
1
0.999999
1
0.999993
0.999997
0.999991
1
1.00001
1.00001
1
1
0.999997
0.999998
0.999999
0.999998
0.999996
0.999998
0.999997
0.999997
0.999997
0.999997
0.999994
1
0.999993
1
1.00001
1.00001
1
1
0.999998
0.999999
0.999999
0.999999
1
0.999999
0.999999
1
0.999995
0.999998
0.999992
0.999998
0.999994
1
1.00001
1
1
1
1
0.999999
0.999999
0.999997
0.999997
1
1
1
0.999999
0.999998
0.999993
0.999999
0.999993
1
1
1
1
1
1
1
0.999999
1
1
0.999999
0.999998
0.999999
1
1
0.999997
0.999999
0.999995
1
1
1.00001
1.00001
1.00001
1
1
1
1
1
1
1.00001
1.00001
1
1
0.999997
1
0.999995
1
1
1
1
1
1.00001
1
0.999999
1
1
1
0.999997
0.999995
0.999999
0.999997
0.999991
0.999995
0.999992
1
1
1
1
1
1.00001
1.00001
1.00001
1
1.00001
1.00001
1.00001
1.00001
1.00001
1.00001
1.00001
1.00002
0.999991
0.999999
1.00001
1
0.999996
0.999991
0.999991
0.999988
0.999986
0.999985
0.999981
0.999979
0.999975
0.999972
0.999972
0.999972
0.999964
0.999966
0.999988
1
1.00001
1.00001
1.00002
1.00002
1.00003
1.00004
1.00004
1.00005
1.00006
1.00006
1.00007
1.00007
1.00008
1.00008
1.00008
1.00009
0.999982
1
1
0.999974
0.999943
0.999921
0.9999
0.999878
0.99986
0.999842
0.999828
0.999815
0.999802
0.999795
0.999786
0.999779
0.99977
0.999767
0.999965
1.00007
1.00018
1.00024
1.0003
1.00037
1.00043
1.00049
1.00054
1.00058
1.00062
1.00065
1.00067
1.00069
1.00071
1.00072
1.00073
1.00074
0.999753
0.999568
0.999366
0.999131
0.998913
0.998704
0.998509
0.998342
0.998201
0.998088
0.998002
0.997936
0.997889
0.997856
0.997838
0.997829
0.997822
0.997814
0.999992
1.00043
1.00095
1.00167
1.00247
1.00316
1.00368
1.00405
1.00429
1.00442
1.00447
1.00446
1.0044
1.00432
1.00421
1.00409
1.00396
1.00386
0.999945
0.996247
0.990161
0.98452
0.980273
0.977358
0.975527
0.97452
0.974115
0.974128
0.974432
0.974931
0.975556
0.976259
0.977006
0.977763
0.978549
0.979195
1.0214
1.05634
1.0798
1.09471
1.10362
1.10848
1.11069
1.11118
1.11056
1.10922
1.10743
1.10537
1.10317
1.1009
1.09862
1.09638
1.09417
1.09224
0.922802
0.82784
0.774466
0.743959
0.725618
0.714657
0.708441
0.705217
0.70388
0.70374
0.704359
0.705454
0.70684
0.708395
0.710039
0.711701
0.713398
0.714943
1.06291
1.12901
1.16726
1.19166
1.20826
1.21975
1.22781
1.23361
1.2379
1.24113
1.24365
1.24564
1.24725
1.24858
1.24971
1.25063
1.25155
1.25214
-1.07308e-25
-3.10119e-26
-3.96045e-27
-8.2733e-27
1.68198e-28
3.42007e-27
7.72357e-27
1.19888e-26
1.44411e-26
1.48418e-26
1.39363e-26
1.23827e-26
1.05052e-26
8.48504e-27
6.50649e-27
4.73363e-27
3.26863e-27
2.14239e-27
1.33079e-27
7.79198e-28
4.23203e-28
2.01876e-28
6.48049e-29
-2.46777e-29
-8.90512e-29
-1.38827e-28
-1.76715e-28
-2.02117e-28
-2.14391e-28
-2.14272e-28
-2.03889e-28
-1.86142e-28
-1.64026e-28
-1.4016e-28
-1.16561e-28
-9.4602e-29
-7.50835e-29
-5.83547e-29
-4.44419e-29
-3.31655e-29
-2.42329e-29
-1.73064e-29
-1.20471e-29
-8.14079e-30
-5.30905e-30
-3.31273e-30
-1.95087e-30
-1.05781e-30
-5.00177e-31
-1.73926e-31
-4.7259e-34
7.76278e-32
1.01236e-31
9.93094e-32
9.24303e-32
8.67197e-32
3.18332e-32
-3.03024e-31
-1.51986e-30
-4.38694e-30
-7.23231e-30
4.54304e-30
8.61199e-29
3.78383e-28
1.10225e-27
2.1902e-27
1.6312e-27
-9.46567e-27
-5.77853e-26
-2.03619e-25
-5.39607e-25
-1.08254e-24
-1.29825e-24
1.34194e-24
1.48853e-23
5.99437e-23
1.80452e-22
4.51627e-22
9.57523e-22
1.65762e-21
1.94728e-21
-5.00823e-22
-1.23862e-20
-5.01857e-20
-1.50037e-19
-3.83714e-19
-8.80341e-19
-1.84708e-18
-3.5664e-18
-6.31518e-18
-1.00903e-17
-1.39231e-17
-1.44061e-17
-2.83614e-18
3.98829e-17
1.51653e-16
4.0197e-16
9.0944e-16
1.86214e-15
3.53315e-15
6.2692e-15
1.03916e-14
1.58421e-14
2.20758e-14
2.75965e-14
2.95432e-14
2.33251e-14
2.44614e-15
-4.13442e-14
-1.17463e-13
-2.35423e-13
-4.03322e-13
-6.26069e-13
-9.03589e-13
-1.22935e-12
-1.58955e-12
-1.96319e-12
-2.32321e-12
-2.63866e-12
-2.87764e-12
-3.01071e-12
-3.01428e-12
-2.87346e-12
-2.58409e-12
-2.15353e-12
-1.60024e-12
-9.52227e-13
-2.44424e-13
4.84517e-13
1.19572e-12
1.85334e-12
2.42724e-12
2.89484e-12
3.24208e-12
3.46327e-12
3.56049e-12
3.54292e-12
3.42544e-12
3.22645e-12
2.96607e-12
2.66437e-12
2.34004e-12
2.01006e-12
1.68915e-12
1.38858e-12
1.11578e-12
8.75168e-13
6.69372e-13
4.98625e-13
3.60909e-13
2.52616e-13
1.70284e-13
1.09829e-13
6.67761e-14
3.74608e-14
1.84006e-14
6.6902e-15
1.26907e-16
-3.08232e-15
-4.24749e-15
-4.26737e-15
-3.72941e-15
-2.98961e-15
-2.25463e-15
-1.60076e-15
-1.07525e-15
-6.95289e-16
-4.35381e-16
-2.64489e-16
-1.55984e-16
-8.92804e-17
-4.95163e-17
-2.65187e-17
-1.36206e-17
-6.62868e-18
-2.98012e-18
-1.18362e-18
-3.64567e-19
-6.26683e-20
4.68345e-21
9.32533e-25
-1.10095e-24
5.02422e-26
-6.70492e-26
-3.89624e-25
-8.90681e-25
-1.38292e-24
-1.69599e-24
-1.77627e-24
-1.6771e-24
-1.48643e-24
-1.26503e-24
-1.03892e-24
-8.20806e-25
-6.22117e-25
-4.51787e-25
-3.14211e-25
-2.09131e-25
-1.32938e-25
-8.03141e-26
-4.55659e-26
-2.34529e-26
-9.60163e-27
-6.90216e-28
5.50749e-27
1.02235e-26
1.39425e-26
1.67256e-26
1.85007e-26
1.92421e-26
1.90317e-26
1.8043e-26
1.64961e-26
1.46139e-26
1.25921e-26
1.0584e-26
8.69752e-27
6.99901e-27
5.5211e-27
4.27124e-27
3.23988e-27
2.40732e-27
1.74899e-27
1.23901e-27
8.52406e-28
5.66265e-28
3.6022e-28
2.16565e-28
1.20214e-28
5.86351e-29
2.16959e-29
1.45694e-30
-8.067e-30
-1.11886e-29
-1.08885e-29
-9.27888e-30
-8.26996e-30
-1.01544e-29
-1.58864e-29
-1.30625e-29
6.47161e-29
4.25579e-28
1.49089e-27
3.51193e-27
4.20607e-27
-9.26287e-27
-7.94953e-26
-3.08038e-25
-8.50418e-25
-1.68728e-24
-1.61684e-24
4.77057e-24
3.41222e-23
1.26508e-22
3.56017e-22
8.04082e-22
1.38056e-21
1.19783e-21
-3.13981e-21
-2.14967e-20
-7.81165e-20
-2.24979e-19
-5.59146e-19
-1.23247e-18
-2.41625e-18
-4.12804e-18
-5.72342e-18
-4.68089e-18
5.94535e-18
4.23316e-17
1.38097e-16
3.56894e-16
8.0915e-16
1.66937e-15
3.18314e-15
5.63921e-15
9.25853e-15
1.39159e-14
1.85608e-14
2.015e-14
1.1889e-14
-1.92585e-14
-9.41266e-14
-2.41552e-13
-4.97481e-13
-9.00483e-13
-1.48354e-12
-2.26211e-12
-3.21943e-12
-4.29151e-12
-5.35469e-12
-6.21948e-12
-6.63384e-12
-6.29792e-12
-4.89024e-12
-2.10365e-12
2.31337e-12
8.51596e-12
1.65289e-11
2.62256e-11
3.73241e-11
4.9401e-11
6.19234e-11
7.42935e-11
8.59007e-11
9.61766e-11
1.04642e-10
1.10946e-10
1.14886e-10
1.16415e-10
1.15635e-10
1.12765e-10
1.08118e-10
1.02054e-10
9.49582e-11
8.71991e-11
7.91146e-11
7.09982e-11
6.30831e-11
5.55389e-11
4.84775e-11
4.19647e-11
3.60327e-11
3.06891e-11
2.5921e-11
2.16956e-11
1.79779e-11
1.47364e-11
1.19386e-11
9.55043e-12
7.53188e-12
5.85192e-12
4.4732e-12
3.3586e-12
2.47581e-12
1.79036e-12
1.26744e-12
8.7835e-13
5.94955e-13
3.93273e-13
2.5347e-13
1.58543e-13
9.62769e-14
5.67396e-14
3.21082e-14
1.72986e-14
8.85707e-15
4.2568e-15
1.86664e-15
6.96762e-16
1.70424e-16
-3.52134e-17
-9.29083e-17
-9.02079e-17
-6.84306e-17
-4.50743e-17
-2.63068e-17
-1.31432e-17
-5.15917e-18
-6.50535e-19
2.36303e-23
8.02133e-25
1.5071e-24
1.91717e-23
5.02434e-23
8.16182e-23
1.03172e-22
1.11029e-22
1.06889e-22
9.54427e-23
8.13385e-23
6.72686e-23
5.41671e-23
4.23346e-23
3.20177e-23
2.33903e-23
1.64878e-23
1.12013e-23
7.3195e-24
4.58221e-24
2.72575e-24
1.51045e-24
7.33988e-25
2.36314e-25
-9.85593e-26
-3.44207e-25
-5.38153e-25
-6.92777e-25
-8.07655e-25
-8.79528e-25
-9.07838e-25
-8.9626e-25
-8.51871e-25
-7.83486e-25
-7.0008e-25
-6.09677e-25
-5.18759e-25
-4.3208e-25
-3.52764e-25
-2.82545e-25
-2.22073e-25
-1.71224e-25
-1.29376e-25
-9.56256e-26
-6.89507e-26
-4.83127e-26
-3.27182e-26
-2.12485e-26
-1.30748e-26
-7.46597e-27
-3.79201e-27
-1.52516e-27
-2.37951e-28
4.02496e-28
6.43582e-28
6.58604e-28
5.58259e-28
4.03132e-28
2.32973e-28
1.68642e-28
7.00272e-28
3.20507e-27
9.95344e-27
1.98722e-26
8.92998e-27
-1.26662e-25
-6.79512e-25
-2.20111e-24
-5.01829e-24
-6.54174e-24
7.47441e-24
8.37391e-23
3.3606e-22
9.64195e-22
2.11919e-21
3.20126e-21
6.21695e-22
-1.77552e-20
-8.37474e-20
-2.65694e-19
-6.80427e-19
-1.45775e-18
-2.53846e-18
-3.03324e-18
3.94712e-19
1.70322e-17
6.87709e-17
2.01135e-16
4.98543e-16
1.09924e-15
2.19502e-15
3.98038e-15
6.48062e-15
9.13404e-15
9.93162e-15
3.84023e-15
-1.98108e-14
-8.12279e-14
-2.1521e-13
-4.76097e-13
-9.3809e-13
-1.67641e-12
-2.74173e-12
-4.1166e-12
-5.65048e-12
-6.98644e-12
-7.49229e-12
-6.21715e-12
-1.89653e-12
6.97485e-12
2.1992e-11
4.46153e-11
7.58942e-11
1.16179e-10
1.64868e-10
2.20243e-10
2.79445e-10
3.38592e-10
3.93074e-10
4.37965e-10
4.68531e-10
4.80743e-10
4.71748e-10
4.40212e-10
3.86507e-10
3.12712e-10
2.22436e-10
1.20496e-10
1.24561e-11
-9.58788e-11
-1.98947e-10
-2.91864e-10
-3.70746e-10
-4.32914e-10
-4.76916e-10
-5.02452e-10
-5.10324e-10
-5.02287e-10
-4.80737e-10
-4.48479e-10
-4.08458e-10
-3.63488e-10
-3.16169e-10
-2.68867e-10
-2.2352e-10
-1.81556e-10
-1.43865e-10
-1.11056e-10
-8.33723e-11
-6.07131e-11
-4.26533e-11
-2.87214e-11
-1.83941e-11
-1.09853e-11
-5.90487e-12
-2.60141e-12
-5.89388e-13
5.11371e-13
1.0104e-12
1.14285e-12
1.07157e-12
9.06259e-13
7.14028e-13
5.33106e-13
3.80161e-13
2.60085e-13
1.7158e-13
1.09512e-13
6.77459e-14
4.06489e-14
2.36496e-14
1.33213e-14
7.24067e-15
3.77419e-15
1.86586e-15
8.56689e-16
3.51257e-16
1.17112e-16
2.43499e-17
-1.82677e-18
-8.85898e-24
2.34335e-22
-1.77558e-22
-1.51193e-21
-2.99527e-21
-4.05284e-21
-4.53068e-21
-4.48698e-21
-4.08532e-21
-3.51242e-21
-2.91478e-21
-2.36583e-21
-1.88332e-21
-1.46595e-21
-1.11221e-21
-8.20683e-22
-5.8807e-22
-4.08652e-22
-2.7488e-22
-1.78423e-22
-1.11137e-22
-6.56823e-23
-3.58079e-23
-1.64201e-23
-3.5956e-24
5.42913e-24
1.23368e-23
1.79289e-23
2.24244e-23
2.57708e-23
2.78765e-23
2.87318e-23
2.84378e-23
2.71841e-23
2.52078e-23
2.27546e-23
2.00501e-23
1.72828e-23
1.45973e-23
1.20947e-23
9.83757e-24
7.85639e-24
6.15791e-24
4.7323e-24
3.55937e-24
2.61335e-24
1.86623e-24
1.28971e-24
8.56409e-25
5.40601e-25
3.18639e-25
1.69359e-25
7.43942e-26
1.83463e-26
-1.11785e-26
-2.37226e-26
-2.62892e-26
-2.37561e-26
-1.92514e-26
-1.41318e-26
-6.88263e-27
9.38629e-27
4.68135e-26
9.94045e-26
3.6361e-26
-6.9492e-25
-3.57537e-24
-1.10224e-23
-2.26499e-23
-1.85542e-23
8.81949e-23
5.45228e-22
1.85071e-21
4.52824e-21
7.57525e-21
3.18894e-21
-3.6352e-20
-1.83181e-19
-5.81584e-19
-1.42691e-18
-2.72694e-18
-3.4293e-18
9.22813e-19
2.33609e-17
9.50031e-17
2.78963e-16
6.82872e-16
1.44914e-15
2.67042e-15
4.12169e-15
4.61554e-15
6.84654e-16
-1.5782e-14
-6.12738e-14
-1.6572e-13
-3.77843e-13
-7.6771e-13
-1.41972e-12
-2.40338e-12
-3.70001e-12
-5.04798e-12
-5.68916e-12
-4.22194e-12
1.63562e-12
1.51163e-11
4.02525e-11
8.14017e-11
1.42405e-10
2.25411e-10
3.29506e-10
4.49368e-10
5.74234e-10
6.87493e-10
7.67122e-10
7.87107e-10
7.19784e-10
5.38928e-10
2.23157e-10
-2.40793e-10
-8.55481e-10
-1.61127e-09
-2.48616e-09
-3.44701e-09
-4.45217e-09
-5.45486e-09
-6.40732e-09
-7.26485e-09
-7.98941e-09
-8.55237e-09
-8.93629e-09
-9.1354e-09
-9.15479e-09
-9.00855e-09
-8.71775e-09
-8.30796e-09
-7.80644e-09
-7.23988e-09
-6.63399e-09
-6.01125e-09
-5.3903e-09
-4.78568e-09
-4.20806e-09
-3.66494e-09
-3.16153e-09
-2.70094e-09
-2.28378e-09
-1.90976e-09
-1.57819e-09
-1.28779e-09
-1.03698e-09
-8.22766e-10
-6.42564e-10
-4.93619e-10
-3.72419e-10
-2.75647e-10
-1.99939e-10
-1.41846e-10
-9.83528e-11
-6.65866e-11
-4.39005e-11
-2.81314e-11
-1.74699e-11
-1.04746e-11
-6.03953e-12
-3.31984e-12
-1.71653e-12
-8.17034e-13
-3.40746e-13
-1.066e-13
-3.5819e-15
3.30762e-14
3.92069e-14
3.34211e-14
2.46031e-14
1.64688e-14
1.01861e-14
5.81388e-15
2.99817e-15
1.3499e-15
4.05128e-16
-4.71399e-21
-2.40692e-20
6.15459e-21
6.28484e-20
1.08476e-19
1.31977e-19
1.36672e-19
1.28319e-19
1.12687e-19
9.4558e-20
7.71654e-20
6.19396e-20
4.90373e-20
3.81896e-20
2.91639e-20
2.17858e-20
1.58913e-20
1.13024e-20
7.82497e-21
5.26092e-21
3.42174e-21
2.13864e-21
1.26703e-21
6.86791e-22
3.01414e-22
3.7444e-23
-1.55923e-22
-3.08723e-22
-4.34516e-22
-5.36421e-22
-6.12984e-22
-6.6234e-22
-6.84306e-22
-6.80879e-22
-6.5583e-22
-6.13961e-22
-5.60369e-22
-4.99875e-22
-4.36654e-22
-3.74057e-22
-3.14563e-22
-2.5984e-22
-2.10856e-22
-1.68025e-22
-1.31352e-22
-1.00564e-22
-7.52207e-23
-5.4784e-23
-3.86728e-23
-2.62927e-23
-1.70565e-23
-1.03999e-23
-5.79671e-24
-2.77239e-24
-9.14116e-25
1.22477e-25
6.1204e-25
7.62987e-25
7.24939e-25
6.00004e-25
4.59523e-25
3.68229e-25
4.01684e-25
5.7195e-25
3.96208e-25
-2.38075e-24
-1.39851e-23
-4.43403e-23
-8.90454e-23
-5.21994e-23
4.60034e-22
2.49005e-21
7.81762e-21
1.69754e-20
2.01655e-20
-2.86911e-20
-2.65062e-19
-9.79469e-19
-2.57822e-18
-5.04508e-18
-5.95096e-18
4.73951e-18
5.52063e-17
2.07595e-16
5.69073e-16
1.26064e-15
2.24732e-15
2.83014e-15
4.5741e-16
-1.16126e-14
-4.82106e-14
-1.37552e-13
-3.26098e-13
-6.77593e-13
-1.25466e-12
-2.062e-12
-2.91896e-12
-3.21948e-12
-1.5404e-12
4.90187e-12
2.08045e-11
5.27296e-11
1.08507e-10
1.95557e-10
3.17858e-10
4.71709e-10
6.40745e-10
7.91202e-10
8.68677e-10
7.97767e-10
4.8569e-10
-1.69527e-10
-1.26661e-09
-2.8856e-09
-5.07135e-09
-7.81897e-09
-1.10635e-08
-1.46769e-08
-1.84722e-08
-2.22169e-08
-2.56523e-08
-2.85188e-08
-3.05816e-08
-3.16554e-08
-3.16232e-08
-3.04487e-08
-2.81798e-08
-2.4945e-08
-2.09384e-08
-1.63989e-08
-1.15903e-08
-6.77703e-09
-2.20192e-09
1.93031e-09
5.46346e-09
8.29151e-09
1.0366e-08
1.16919e-08
1.23172e-08
1.23252e-08
1.18246e-08
1.0932e-08
9.76312e-09
8.43256e-09
7.04115e-09
5.68007e-09
4.40874e-09
3.27379e-09
2.30323e-09
1.50847e-09
8.8483e-10
4.1754e-10
9.20626e-11
-1.18272e-10
-2.38855e-10
-2.92135e-10
-2.99485e-10
-2.78034e-10
-2.41081e-10
-1.98269e-10
-1.56003e-10
-1.18053e-10
-8.62062e-11
-6.08967e-11
-4.16642e-11
-2.76264e-11
-1.77698e-11
-1.10937e-11
-6.72194e-12
-3.95008e-12
-2.24733e-12
-1.23402e-12
-6.50515e-13
-3.26188e-13
-1.53051e-13
-6.5079e-14
-2.33336e-14
-5.52963e-15
6.29327e-16
1.55222e-15
3.41577e-19
1.15903e-18
-4.08968e-20
-1.66047e-18
-2.70409e-18
-3.10197e-18
-3.07006e-18
-2.79123e-18
-2.39952e-18
-1.98631e-18
-1.60698e-18
-1.2836e-18
-1.01547e-18
-7.93994e-19
-6.11768e-19
-4.6333e-19
-3.44276e-19
-2.506e-19
-1.78434e-19
-1.2405e-19
-8.39823e-20
-5.51396e-20
-3.48614e-20
-2.09118e-20
-1.14455e-20
-4.98176e-21
-3.97778e-22
3.07509e-21
5.88266e-21
8.22029e-21
1.0129e-20
1.1584e-20
1.2556e-20
1.30414e-20
1.3071e-20
1.2704e-20
1.20181e-20
1.10981e-20
1.00267e-20
8.87836e-21
7.71524e-21
6.58591e-21
5.52542e-21
4.55664e-21
3.69222e-21
2.93689e-21
2.28968e-21
1.7457e-21
1.29761e-21
9.36537e-22
6.52662e-22
4.35677e-22
2.75147e-22
1.60871e-22
8.3239e-23
3.35461e-23
4.23984e-24
-1.09487e-23
-1.69797e-23
-1.75747e-23
-1.53425e-23
-1.19078e-23
-8.03044e-24
-3.95055e-24
-9.47407e-25
-6.31323e-24
-4.32343e-23
-1.54765e-22
-3.44453e-22
-2.90161e-22
1.44373e-21
8.6982e-21
2.76406e-20
5.7517e-20
5.22855e-20
-1.79216e-19
-1.14317e-18
-3.74143e-18
-8.5728e-18
-1.26072e-17
2.77072e-19
7.87984e-17
3.30841e-16
9.26017e-16
1.96989e-15
3.00009e-15
1.63861e-15
-9.24705e-15
-4.63236e-14
-1.41631e-13
-3.44849e-13
-7.09536e-13
-1.23766e-12
-1.73899e-12
-1.54497e-12
9.84514e-13
9.18278e-12
2.89205e-11
6.91803e-11
1.41363e-10
2.54902e-10
4.10434e-10
5.89134e-10
7.39059e-10
7.61869e-10
5.04076e-10
-2.41982e-10
-1.72291e-09
-4.19219e-09
-7.8621e-09
-1.28444e-08
-1.90887e-08
-2.63293e-08
-3.40534e-08
-4.14999e-08
-4.76952e-08
-5.15278e-08
-5.18554e-08
-4.76326e-08
-3.8041e-08
-2.25984e-08
-1.24339e-09
2.56266e-08
5.7166e-08
9.21395e-08
1.29023e-07
1.66132e-07
2.01757e-07
2.34295e-07
2.62394e-07
2.85022e-07
3.01519e-07
3.11601e-07
3.1534e-07
3.13125e-07
3.05574e-07
2.93424e-07
2.77556e-07
2.58861e-07
2.382e-07
2.16387e-07
1.9413e-07
1.72008e-07
1.50525e-07
1.30081e-07
1.10979e-07
9.34182e-08
7.75398e-08
6.34125e-08
5.10662e-08
4.04504e-08
3.14625e-08
2.40304e-08
1.79942e-08
1.31873e-08
9.443e-09
6.59499e-09
4.48126e-09
2.95407e-09
1.88164e-09
1.15175e-09
6.71801e-10
3.68238e-10
1.84853e-10
8.00147e-11
2.43258e-11
-2.13727e-12
-1.23456e-11
-1.43002e-11
-1.26314e-11
-9.81386e-12
-7.02902e-12
-4.73711e-12
-3.03258e-12
-1.85011e-12
-1.07354e-12
-5.88321e-13
-2.99775e-13
-1.39429e-13
-5.12293e-14
-1.32476e-17
-3.42765e-17
-3.28388e-18
3.06626e-17
4.9795e-17
5.56602e-17
5.38544e-17
4.81846e-17
4.10286e-17
3.38039e-17
2.73017e-17
2.18198e-17
1.73202e-17
1.3637e-17
1.06221e-17
8.16548e-18
6.183e-18
4.60484e-18
3.36868e-18
2.4172e-18
1.69813e-18
1.16491e-18
7.77245e-19
5.00991e-19
3.07512e-19
1.73062e-19
7.84701e-20
9.16747e-21
-4.47761e-20
-8.90812e-20
-1.26256e-19
-1.56856e-19
-1.80596e-19
-1.97112e-19
-2.06353e-19
-2.087e-19
-2.04926e-19
-1.96067e-19
-1.83295e-19
-1.67787e-19
-1.50645e-19
-1.32826e-19
-1.15113e-19
-9.8108e-20
-8.2238e-20
-6.77772e-20
-5.48746e-20
-4.35838e-20
-3.38894e-20
-2.57277e-20
-1.90005e-20
-1.35849e-20
-9.34003e-21
-6.11313e-21
-3.74601e-21
-2.08188e-21
-9.72003e-22
-2.81512e-22
1.06455e-22
2.88448e-22
3.40358e-22
3.18768e-22
2.63721e-22
2.01989e-22
1.47459e-22
9.00056e-23
-3.85991e-23
-4.02221e-22
-1.13173e-21
-1.47318e-21
2.83272e-21
2.42029e-20
8.35546e-20
1.78577e-19
1.49786e-19
-6.56888e-19
-3.88918e-18
-1.20511e-17
-2.4814e-17
-2.49766e-17
5.58681e-17
3.92905e-16
1.29517e-15
3.00963e-15
4.81747e-15
2.55164e-15
-1.64244e-14
-8.03956e-14
-2.37183e-13
-5.37109e-13
-9.55143e-13
-1.18164e-12
-1.85912e-13
4.52668e-12
1.79198e-11
4.83274e-11
1.07276e-10
2.06314e-10
3.47703e-10
5.0432e-10
5.88871e-10
4.27637e-10
-2.65156e-10
-1.88772e-09
-4.91247e-09
-9.79685e-09
-1.68417e-08
-2.60095e-08
-3.67305e-08
-4.77364e-08
-5.69672e-08
-6.15912e-08
-5.81666e-08
-4.29469e-08
-1.23105e-08
3.67353e-08
1.0605e-07
1.95933e-07
3.04847e-07
4.29334e-07
5.64159e-07
7.02702e-07
8.37495e-07
9.60905e-07
1.06583e-06
1.14632e-06
1.19814e-06
1.21916e-06
1.20944e-06
1.17097e-06
1.10759e-06
1.02441e-06
9.27299e-07
8.22296e-07
7.15162e-07
6.11206e-07
5.14413e-07
4.27746e-07
3.52986e-07
2.90792e-07
2.4082e-07
2.01993e-07
1.72782e-07
1.51352e-07
1.35976e-07
1.24466e-07
1.15411e-07
1.07573e-07
1.00069e-07
9.23178e-08
8.40653e-08
7.53039e-08
6.61934e-08
5.69997e-08
4.80243e-08
3.95539e-08
3.18256e-08
2.50022e-08
1.91687e-08
1.43354e-08
1.04528e-08
7.42735e-09
5.1399e-09
3.46203e-09
2.26759e-09
1.44259e-09
8.90221e-10
5.31905e-10
3.0688e-10
1.70232e-10
9.0162e-11
4.50494e-11
2.07569e-11
8.38615e-12
2.54837e-12
1.06945e-13
-6.86934e-13
-7.61844e-13
-5.88494e-13
-3.45631e-13
3.40577e-16
7.05959e-16
1.31372e-16
-4.17575e-16
-7.08372e-16
-7.90782e-16
-7.61014e-16
-6.78606e-16
-5.77817e-16
-4.7739e-16
-3.87249e-16
-3.11176e-16
-2.48766e-16
-1.97761e-16
-1.56001e-16
-1.21842e-16
-9.4049e-17
-7.16426e-17
-5.3794e-17
-3.97695e-17
-2.89105e-17
-2.06301e-17
-1.44169e-17
-9.83298e-18
-6.50734e-18
-4.12645e-18
-2.42718e-18
-1.19464e-18
-2.64629e-19
4.74937e-19
1.08903e-18
1.60713e-18
2.03704e-18
2.37684e-18
2.6231e-18
2.77535e-18
2.8377e-18
2.81863e-18
2.72992e-18
2.58527e-18
2.39896e-18
2.18474e-18
1.9551e-18
1.7207e-18
1.49017e-18
1.27005e-18
1.065e-18
8.78002e-19
7.10762e-19
5.63965e-19
4.37553e-19
3.30894e-19
2.42898e-19
1.72106e-19
1.16756e-19
7.48801e-20
4.43952e-20
2.32134e-20
9.3424e-21
9.69876e-22
-3.47566e-21
-5.29092e-21
-5.48872e-21
-4.81034e-21
-3.75929e-21
-2.67288e-21
-1.87717e-21
-1.93866e-21
-3.66476e-21
-6.29796e-21
-2.15323e-22
4.91311e-20
2.12086e-19
5.20901e-19
5.90205e-19
-1.4045e-18
-1.02531e-17
-3.30249e-17
-6.64217e-17
-5.09825e-17
2.31398e-16
1.28404e-15
3.79007e-15
7.48885e-15
7.45109e-15
-1.40866e-14
-9.92529e-14
-3.1676e-13
-7.14126e-13
-1.13081e-12
-7.29746e-13
2.89275e-12
1.49674e-11
4.45444e-11
1.03396e-10
1.9921e-10
3.17553e-10
3.86432e-10
2.20521e-10
-5.46289e-10
-2.47757e-09
-6.29354e-09
-1.27081e-08
-2.21224e-08
-3.41888e-08
-4.73064e-08
-5.81612e-08
-6.14513e-08
-4.9939e-08
-1.49389e-08
5.27249e-08
1.61351e-07
3.16732e-07
5.20506e-07
7.6876e-07
1.05113e-06
1.35066e-06
1.64456e-06
1.90597e-06
2.10641e-06
2.21837e-06
2.21831e-06
2.08926e-06
1.8229e-06
1.42069e-06
8.94048e-07
2.63454e-07
-4.42892e-07
-1.19086e-06
-1.94523e-06
-2.67101e-06
-3.33638e-06
-3.91461e-06
-4.38549e-06
-4.73637e-06
-4.96171e-06
-5.0623e-06
-5.04559e-06
-4.92325e-06
-4.70984e-06
-4.42284e-06
-4.08081e-06
-3.70091e-06
-3.29992e-06
-2.89148e-06
-2.49093e-06
-2.10846e-06
-1.7525e-06
-1.42889e-06
-1.14158e-06
-8.92565e-07
-6.81708e-07
-5.07442e-07
-3.6711e-07
-2.57098e-07
-1.73323e-07
-1.11543e-07
-6.75751e-08
-3.75469e-08
-1.80267e-08
-6.115e-09
5.33736e-10
3.7328e-09
4.81837e-09
4.72598e-09
4.07167e-09
3.23243e-09
2.41673e-09
1.72163e-09
1.1766e-09
7.74577e-10
4.92277e-10
3.02244e-10
1.79112e-10
1.02164e-10
5.57825e-11
2.88909e-11
1.397e-11
6.17401e-12
2.22367e-12
-6.44928e-15
-1.08954e-14
-2.76241e-15
4.31353e-15
8.01996e-15
9.12076e-15
8.85054e-15
7.94639e-15
6.81954e-15
5.68584e-15
4.65704e-15
3.77909e-15
3.05319e-15
2.45686e-15
1.96607e-15
1.5617e-15
1.22926e-15
9.57529e-16
7.37323e-16
5.60738e-16
4.2078e-16
3.11205e-16
2.26524e-16
1.61972e-16
1.13469e-16
7.75215e-17
5.114e-17
3.1768e-17
1.72883e-17
6.07058e-18
-3.00504e-18
-1.06013e-17
-1.70377e-17
-2.24203e-17
-2.67529e-17
-3.00151e-17
-3.22071e-17
-3.33689e-17
-3.35821e-17
-3.29625e-17
-3.16486e-17
-2.9789e-17
-2.75321e-17
-2.50174e-17
-2.23691e-17
-1.96922e-17
-1.70715e-17
-1.45713e-17
-1.22379e-17
-1.01026e-17
-8.18462e-18
-6.49361e-18
-5.03169e-18
-3.79446e-18
-2.77187e-18
-1.9488e-18
-1.30601e-18
-8.21192e-19
-4.703e-19
-2.28906e-19
-7.34901e-20
1.74825e-20
6.27745e-20
7.791e-20
7.50514e-20
6.31264e-20
4.79887e-20
3.23344e-20
1.5461e-20
-4.44216e-21
-1.58457e-20
4.94369e-20
3.79883e-19
1.20737e-18
2.01821e-18
-1.03151e-18
-1.9706e-17
-7.36705e-17
-1.58923e-16
-1.2439e-16
6.02483e-16
3.29355e-15
9.2913e-15
1.59314e-14
4.71729e-15
-8.02087e-14
-3.47823e-13
-9.0456e-13
-1.56851e-12
-1.10015e-12
4.22806e-12
2.22739e-11
6.47053e-11
1.39362e-10
2.25944e-10
2.23643e-10
-1.34939e-10
-1.38694e-09
-4.39194e-09
-1.01756e-08
-1.94973e-08
-3.20856e-08
-4.55818e-08
-5.44289e-08
-4.90544e-08
-1.57688e-08
6.22426e-08
2.02617e-07
4.20247e-07
7.22835e-07
1.10619e-06
1.5502e-06
2.0163e-06
2.44725e-06
2.76971e-06
2.89975e-06
2.75071e-06
2.24264e-06
1.31246e-06
-7.67698e-08
-1.92958e-06
-4.21443e-06
-6.8639e-06
-9.77887e-06
-1.28359e-05
-1.58971e-05
-1.88216e-05
-2.14782e-05
-2.37541e-05
-2.55635e-05
-2.6854e-05
-2.76062e-05
-2.78322e-05
-2.75696e-05
-2.68758e-05
-2.58321e-05
-2.45123e-05
-2.29957e-05
-2.13545e-05
-1.96497e-05
-1.79343e-05
-1.625e-05
-1.46231e-05
-1.30719e-05
-1.16065e-05
-1.02322e-05
-8.95161e-06
-7.76508e-06
-6.67189e-06
-5.67168e-06
-4.76453e-06
-3.95014e-06
-3.22786e-06
-2.59641e-06
-2.05314e-06
-1.59399e-06
-1.21344e-06
-9.04554e-07
-6.59391e-07
-4.69351e-07
-3.25671e-07
-2.19866e-07
-1.44082e-07
-9.13781e-08
-5.5854e-08
-3.27056e-08
-1.81737e-08
-9.42684e-09
-4.4159e-09
-1.71696e-09
-3.81781e-10
1.93619e-10
3.75815e-10
3.75467e-10
3.05858e-10
2.22662e-10
1.49591e-10
9.37998e-11
5.52964e-11
2.87774e-11
9.55773e-14
1.32032e-13
4.04393e-14
-3.39555e-14
-7.37081e-14
-8.6909e-14
-8.6009e-14
-7.84154e-14
-6.82766e-14
-5.77585e-14
-4.79897e-14
-3.94831e-14
-3.23404e-14
-2.64057e-14
-2.14722e-14
-1.73637e-14
-1.39431e-14
-1.11046e-14
-8.76309e-15
-6.84677e-15
-5.29289e-15
-4.0453e-15
-3.05402e-15
-2.27501e-15
-1.66995e-15
-1.20563e-15
-8.53266e-16
-5.87671e-16
-3.86854e-16
-2.32318e-16
-1.09712e-16
-9.04904e-18
7.57738e-17
1.47938e-16
2.08748e-16
2.58536e-16
2.97322e-16
3.25204e-16
3.42563e-16
3.50107e-16
3.48842e-16
3.39994e-16
3.24915e-16
3.04995e-16
2.81587e-16
2.55942e-16
2.29164e-16
2.02183e-16
1.75753e-16
1.50457e-16
1.26732e-16
1.04892e-16
8.51533e-17
6.76476e-17
5.24335e-17
3.95005e-17
2.87736e-17
2.01188e-17
1.33518e-17
8.25048e-18
4.56946e-18
2.05467e-18
4.57868e-19
-4.50742e-19
-8.73031e-19
-9.7746e-19
-8.96262e-19
-7.26924e-19
-5.38514e-19
-3.80793e-19
-2.79774e-19
-1.70071e-19
3.0001e-19
1.94568e-18
5.14154e-18
4.84947e-18
-2.18995e-17
-1.27461e-16
-3.46418e-16
-4.32325e-16
8.22623e-16
6.39606e-15
1.96143e-14
3.36409e-14
1.11822e-15
-2.14729e-13
-8.41946e-13
-1.92952e-12
-2.36173e-12
2.23591e-12
2.18858e-11
7.0345e-11
1.47064e-10
1.8307e-10
-6.82689e-11
-1.18583e-09
-4.19234e-09
-1.03952e-08
-2.05229e-08
-3.3177e-08
-4.27307e-08
-3.7188e-08
2.97179e-09
1.03878e-07
2.94356e-07
5.98722e-07
1.02681e-06
1.56258e-06
2.15356e-06
2.70365e-06
3.07185e-06
3.07848e-06
2.51968e-06
1.18906e-06
-1.09551e-06
-4.46317e-06
-8.96284e-06
-1.45419e-05
-2.10361e-05
-2.81777e-05
-3.56041e-05
-4.28865e-05
-4.95648e-05
-5.51889e-05
-5.93593e-05
-6.17632e-05
-6.21997e-05
-6.06013e-05
-5.70766e-05
-5.18195e-05
-4.51477e-05
-3.74549e-05
-2.91773e-05
-2.07559e-05
-1.25967e-05
-5.10011e-06
1.46875e-06
6.9128e-06
1.11244e-05
1.40783e-05
1.58229e-05
1.6472e-05
1.61861e-05
1.51526e-05
1.35656e-05
1.16186e-05
9.49482e-06
7.35195e-06
5.31694e-06
3.48523e-06
1.92059e-06
6.54977e-07
-3.06417e-07
-9.79974e-07
-1.39833e-06
-1.60403e-06
-1.64394e-06
-1.56458e-06
-1.40836e-06
-1.21118e-06
-1.00115e-06
-7.98462e-07
-6.15972e-07
-4.60417e-07
-3.33813e-07
-2.34912e-07
-1.60511e-07
-1.0649e-07
-6.85762e-08
-4.28294e-08
-2.59043e-08
-1.51353e-08
-8.5083e-09
-4.57136e-09
-2.32102e-09
-1.09076e-09
-4.54367e-10
-1.49043e-10
-1.85702e-11
2.45102e-11
-1.1505e-12
-1.29645e-12
-4.51888e-13
1.97098e-13
5.5682e-13
6.92616e-13
7.06056e-13
6.58424e-13
5.84948e-13
5.0441e-13
4.26866e-13
3.5734e-13
2.97625e-13
2.4714e-13
2.0455e-13
1.68574e-13
1.38167e-13
1.12509e-13
9.09441e-14
7.29268e-14
5.79834e-14
4.56883e-14
3.56577e-14
2.75466e-14
2.10493e-14
1.58956e-14
1.18487e-14
8.69883e-15
6.25761e-15
4.3565e-15
2.85201e-15
1.63175e-15
6.1612e-16
-2.45683e-16
-9.82367e-16
-1.60795e-15
-2.12825e-15
-2.5457e-15
-2.86249e-15
-3.08226e-15
-3.21079e-15
-3.25598e-15
-3.22749e-15
-3.13617e-15
-2.99348e-15
-2.8109e-15
-2.5994e-15
-2.36903e-15
-2.12867e-15
-1.88582e-15
-1.64665e-15
-1.41615e-15
-1.19823e-15
-9.95965e-16
-8.1165e-16
-6.46911e-16
-5.027e-16
-3.79298e-16
-2.76334e-16
-1.9282e-16
-1.27242e-16
-7.7662e-17
-4.18501e-17
-1.7437e-17
-2.0684e-18
6.48449e-18
1.02185e-17
1.08219e-17
9.62833e-18
7.60301e-18
5.36351e-18
3.2762e-18
1.7787e-18
2.10995e-18
6.75631e-18
1.52726e-17
4.68253e-18
-1.11276e-16
-4.80429e-16
-9.87173e-16
-4.33075e-17
7.51008e-15
2.9404e-14
5.73618e-14
5.80648e-15
-3.86223e-13
-1.5066e-12
-3.06234e-12
-1.4691e-12
1.46138e-11
6.49033e-11
1.54416e-10
1.88243e-10
-2.10786e-10
-1.93268e-09
-6.38445e-09
-1.46472e-08
-2.48733e-08
-2.83251e-08
-5.80851e-09
7.39713e-08
2.51055e-07
5.64024e-07
1.03257e-06
1.63468e-06
2.28277e-06
2.80492e-06
2.93767e-06
2.33612e-06
6.04392e-07
-2.65421e-06
-7.772e-06
-1.49451e-05
-2.41657e-05
-3.51693e-05
-4.74087e-05
-6.00562e-05
-7.20368e-05
-8.21116e-05
-8.90011e-05
-9.14771e-05
-8.84911e-05
-7.92858e-05
-6.34834e-05
-4.11406e-05
-1.27621e-05
2.0738e-05
5.81067e-05
9.76618e-05
0.000137774
0.000176748
0.000213
0.000245159
0.000272142
0.000293176
0.000307843
0.000316079
0.000318112
0.0003144
0.000305572
0.000292366
0.000275595
0.000256094
0.000234674
0.000212081
0.000189003
0.000166058
0.000143776
0.000122597
0.000102871
8.48649e-05
6.8754e-05
5.46299e-05
4.25069e-05
3.23286e-05
2.39797e-05
1.72989e-05
1.20927e-05
8.15031e-06
5.25724e-06
3.20724e-06
1.81169e-06
9.05769e-07
3.51762e-07
3.95465e-08
-1.15035e-07
-1.73314e-07
-1.77742e-07
-1.56018e-07
-1.24955e-07
-9.38069e-08
-6.6921e-08
-4.57122e-08
-3.00227e-08
-1.89939e-08
-1.1574e-08
-6.78061e-09
-3.80277e-09
-2.03551e-09
-9.87894e-10
1.1509e-11
1.05433e-11
4.037e-12
-7.23613e-13
-3.48096e-12
-4.65726e-12
-4.93583e-12
-4.73805e-12
-4.3159e-12
-3.80878e-12
-3.29444e-12
-2.81481e-12
-2.39024e-12
-2.02285e-12
-1.70682e-12
-1.43505e-12
-1.20123e-12
-1.00022e-12
-8.27904e-13
-6.80833e-13
-5.5605e-13
-4.50874e-13
-3.62844e-13
-2.89701e-13
-2.29392e-13
-1.80056e-13
-1.40031e-13
-1.07827e-13
-8.2093e-14
-6.15711e-14
-4.51134e-14
-3.17324e-14
-2.06484e-14
-1.12937e-14
-3.2893e-15
3.59622e-15
9.49289e-15
1.44697e-14
1.85657e-14
2.18116e-14
2.4242e-14
2.59024e-14
2.68505e-14
2.71555e-14
2.68951e-14
2.61533e-14