/*--------------------------------*- C++ -*----------------------------------*\
| =========                 |                                                 |
| \\      /  F ield         | OpenFOAM: The Open Source CFD Toolbox           |
|  \\    /   O peration     | Version:  4.1                                   |
|   \\  /    A nd           | Web:      www.OpenFOAM.org                      |
|    \\/     M anipulation  |                                                 |
\*---------------------------------------------------------------------------*/
FoamFile
{
    version     2.0;
    format      ascii;
    class       volScalarField;
    location    "0.07";
    object      T;
}
// * * * * * * * * * * * * * * * * * * * * * * * * * * * * * * * * * * * * * //

dimensions      [0 0 0 1 0 0 0];

internalField   nonuniform List<scalar> 
12225
(
0.625082
0.501659
0.482429
0.479445
0.478893
0.478746
0.478693
0.478669
0.478656
0.478647
0.478638
0.478624
0.47859
0.478504
0.478289
0.477759
0.476427
0.473057
0.617081
0.498208
0.480748
0.478495
0.478335
0.47841
0.478486
0.478541
0.478578
0.478601
0.478614
0.478614
0.47859
0.478513
0.478311
0.477807
0.476576
0.473582
0.621282
0.500687
0.482151
0.479347
0.478884
0.478769
0.478724
0.4787
0.478684
0.478673
0.478663
0.478647
0.478613
0.478534
0.47834
0.477878
0.476807
0.474435
0.621277
0.500416
0.481761
0.479003
0.478628
0.478587
0.478593
0.478605
0.478616
0.478623
0.478626
0.478621
0.478596
0.478528
0.478357
0.477958
0.477072
0.475259
0.621238
0.500487
0.481847
0.479071
0.47869
0.478643
0.47864
0.478643
0.478646
0.478647
0.478645
0.478637
0.478612
0.47855
0.478401
0.478066
0.477362
0.476023
0.621177
0.50051
0.481888
0.479083
0.478687
0.478637
0.478634
0.478638
0.478641
0.478643
0.478643
0.478636
0.478615
0.478562
0.478438
0.47817
0.477633
0.476671
0.621178
0.500547
0.481941
0.479115
0.478704
0.47865
0.478645
0.478646
0.478649
0.47865
0.478649
0.478643
0.478625
0.478581
0.478482
0.478275
0.47788
0.477206
0.621179
0.500558
0.481969
0.479137
0.478717
0.478659
0.478652
0.478652
0.478654
0.478655
0.478653
0.478648
0.478633
0.478596
0.478517
0.478356
0.478058
0.477565
0.621177
0.500563
0.481988
0.479156
0.478731
0.478669
0.47866
0.478659
0.47866
0.47866
0.478658
0.478654
0.478641
0.478611
0.478547
0.478421
0.478195
0.477829
0.621174
0.500565
0.482002
0.479173
0.478745
0.47868
0.478669
0.478667
0.478667
0.478666
0.478664
0.47866
0.47865
0.478626
0.478576
0.478483
0.478318
0.478059
0.621171
0.500564
0.482012
0.479188
0.478759
0.478692
0.47868
0.478676
0.478675
0.478674
0.478671
0.478667
0.478659
0.478642
0.478605
0.478539
0.478425
0.478249
0.621167
0.500561
0.482017
0.479198
0.478771
0.478704
0.47869
0.478686
0.478683
0.478682
0.478679
0.478676
0.47867
0.478657
0.478632
0.478587
0.478512
0.4784
0.621164
0.500557
0.482019
0.479205
0.47878
0.478714
0.4787
0.478696
0.478692
0.47869
0.478688
0.478685
0.47868
0.478671
0.478654
0.478626
0.47858
0.478513
0.621161
0.500553
0.482019
0.479209
0.478786
0.47872
0.478708
0.478704
0.478701
0.478698
0.478696
0.478694
0.47869
0.478684
0.478673
0.478657
0.478631
0.478593
0.621158
0.500549
0.482017
0.47921
0.478789
0.478725
0.478713
0.47871
0.478708
0.478706
0.478704
0.478701
0.478699
0.478694
0.478688
0.478679
0.478665
0.478646
0.621156
0.500546
0.482015
0.479209
0.47879
0.478728
0.478717
0.478714
0.478712
0.47871
0.478709
0.478708
0.478706
0.478703
0.478699
0.478694
0.478687
0.478678
0.621154
0.500544
0.482013
0.479208
0.47879
0.478728
0.478718
0.478716
0.478714
0.478714
0.478712
0.478711
0.47871
0.478708
0.478706
0.478703
0.478699
0.478695
0.621154
0.500543
0.482012
0.479208
0.47879
0.478728
0.478718
0.478715
0.478714
0.478714
0.478713
0.478712
0.478711
0.478709
0.478707
0.478705
0.478703
0.478703
0.621154
0.500543
0.482012
0.479207
0.478789
0.478728
0.478718
0.478714
0.478712
0.478712
0.47871
0.478709
0.478708
0.478707
0.478706
0.478704
0.478703
0.478703
0.621154
0.500544
0.482012
0.479207
0.478788
0.478725
0.478715
0.478711
0.478709
0.478707
0.478706
0.478705
0.478704
0.478703
0.478702
0.478701
0.4787
0.478701
0.621154
0.500545
0.482014
0.479206
0.478784
0.47872
0.478709
0.478705
0.478703
0.478701
0.478699
0.478698
0.478697
0.478697
0.478696
0.478695
0.478694
0.478694
0.621154
0.500547
0.482015
0.479204
0.47878
0.478714
0.478702
0.478698
0.478696
0.478694
0.478693
0.478692
0.478692
0.478691
0.478691
0.47869
0.478689
0.47869
0.621152
0.500551
0.482014
0.479195
0.478767
0.478701
0.478689
0.478685
0.478684
0.478683
0.478683
0.478682
0.478682
0.478683
0.478682
0.478682
0.478682
0.478683
0.621147
0.500559
0.482014
0.479187
0.478759
0.478694
0.478684
0.478681
0.478681
0.47868
0.47868
0.47868
0.478681
0.478681
0.478681
0.478681
0.478681
0.478682
0.621134
0.500551
0.481983
0.479149
0.478725
0.478665
0.478657
0.478657
0.478658
0.47866
0.478662
0.478664
0.478665
0.478667
0.478669
0.47867
0.478671
0.478673
0.621195
0.500594
0.48198
0.479154
0.478749
0.478696
0.478689
0.478687
0.478686
0.478685
0.478684
0.478682
0.478681
0.47868
0.47868
0.47868
0.478679
0.47868
0.621276
0.500532
0.481808
0.478971
0.478582
0.478548
0.478561
0.47858
0.478597
0.478611
0.478622
0.478631
0.478639
0.478645
0.478651
0.478655
0.478659
0.478661
0.621626
0.501078
0.482445
0.479563
0.479064
0.478923
0.47885
0.478804
0.478771
0.478747
0.47873
0.478716
0.478707
0.4787
0.478695
0.478691
0.47869
0.478684
0.617042
0.497852
0.480426
0.478232
0.478138
0.478261
0.478372
0.478454
0.478512
0.478553
0.478582
0.478604
0.47862
0.478632
0.478642
0.47865
0.478659
0.478657
0.625111
0.502056
0.482622
0.479575
0.479005
0.478839
0.47877
0.478733
0.478711
0.478697
0.478687
0.47868
0.478676
0.478673
0.478671
0.478671
0.478674
0.478662
0.314696
0.314689
0.314654
0.314609
0.314556
0.314493
0.31442
0.314338
0.314245
0.314143
0.314035
0.313918
0.313795
0.313665
0.313528
0.313387
0.31324
0.31309
0.312936
0.312781
0.312624
0.312467
0.31231
0.312155
0.312003
0.311854
0.311709
0.311571
0.311438
0.311313
0.311197
0.31109
0.310992
0.310907
0.310833
0.310771
0.310724
0.31069
0.310672
0.310669
0.310682
0.310712
0.310759
0.310823
0.310906
0.311007
0.311125
0.311262
0.311419
0.311593
0.311786
0.311998
0.312228
0.312476
0.312741
0.313024
0.313324
0.31364
0.313972
0.314319
0.314681
0.315057
0.315447
0.315849
0.316264
0.31669
0.317126
0.317572
0.318028
0.318492
0.318963
0.319442
0.319927
0.320418
0.320913
0.321413
0.321917
0.322423
0.322932
0.323442
0.323954
0.324467
0.324979
0.325491
0.326002
0.326512
0.327019
0.327525
0.328027
0.328525
0.32902
0.329511
0.329998
0.330479
0.330955
0.331425
0.331889
0.332347
0.332799
0.333244
0.333681
0.334111
0.334534
0.33495
0.335357
0.335757
0.336149
0.336533
0.336908
0.337275
0.337634
0.337985
0.338326
0.33866
0.338984
0.339299
0.339606
0.339903
0.340192
0.34047
0.34074
0.340999
0.341249
0.341489
0.341719
0.341939
0.342148
0.342347
0.342536
0.342714
0.34288
0.343036
0.34318
0.343313
0.343434
0.343544
0.343642
0.343727
0.3438
0.343861
0.34391
0.343945
0.343968
0.343977
0.343973
0.343956
0.343925
0.343881
0.343822
0.34375
0.343664
0.343563
0.343448
0.343318
0.343174
0.343015
0.342842
0.342654
0.34245
0.342233
0.341998
0.341749
0.341489
0.3412
0.340896
0.340576
0.34023
0.339871
0.339498
0.33911
0.338709
0.338294
0.337864
0.337422
0.336968
0.3365
0.336034
0.335533
0.335166
0.334182
0.31515
0.315134
0.315113
0.31508
0.315036
0.314981
0.314917
0.314841
0.314753
0.314655
0.314546
0.314429
0.314303
0.314171
0.314032
0.313887
0.313737
0.313584
0.313428
0.313269
0.313109
0.312949
0.31279
0.312633
0.312478
0.312326
0.312179
0.312038
0.311904
0.311776
0.311657
0.311548
0.311449
0.31136
0.311284
0.311221
0.31117
0.311135
0.311114
0.311108
0.311119
0.311146
0.31119
0.311252
0.311332
0.31143
0.311546
0.31168
0.311833
0.312005
0.312195
0.312403
0.31263
0.312875
0.313137
0.313416
0.313713
0.314025
0.314354
0.314698
0.315056
0.315429
0.315815
0.316214
0.316625
0.317048
0.317481
0.317924
0.318376
0.318837
0.319305
0.319781
0.320263
0.32075
0.321242
0.321739
0.32224
0.322743
0.323249
0.323757
0.324266
0.324775
0.325285
0.325794
0.326303
0.32681
0.327315
0.327817
0.328317
0.328813
0.329306
0.329794
0.330278
0.330757
0.33123
0.331698
0.33216
0.332615
0.333064
0.333506
0.333941
0.334369
0.334789
0.335202
0.335607
0.336005
0.336394
0.336775
0.337148
0.337513
0.337869
0.338217
0.338557
0.338887
0.339209
0.339521
0.339825
0.34012
0.340405
0.340681
0.340947
0.341204
0.341451
0.341688
0.341914
0.342131
0.342337
0.342533
0.342718
0.342892
0.343056
0.343208
0.343349
0.343478
0.343596
0.343702
0.343795
0.343877
0.343947
0.344004
0.344048
0.34408
0.344098
0.344104
0.344096
0.344074
0.344039
0.34399
0.343928
0.343851
0.34376
0.343654
0.343535
0.3434
0.343251
0.343087
0.342908
0.342714
0.342505
0.342281
0.34204
0.341785
0.341517
0.341227
0.340925
0.340613
0.34028
0.339933
0.33957
0.339192
0.3388
0.338393
0.337973
0.337538
0.337092
0.336634
0.336176
0.335692
0.335301
0.334534
0.316074
0.316036
0.316003
0.315965
0.315918
0.315858
0.315787
0.315704
0.31561
0.315506
0.315392
0.31527
0.31514
0.315002
0.314859
0.31471
0.314557
0.3144
0.314241
0.314079
0.313916
0.313753
0.313591
0.313431
0.313274
0.31312
0.31297
0.312826
0.312689
0.312559
0.312437
0.312325
0.312222
0.312131
0.312052
0.311984
0.311931
0.311891
0.311866
0.311857
0.311863
0.311886
0.311926
0.311983
0.312058
0.312151
0.312262
0.312391
0.312539
0.312705
0.312889
0.313092
0.313313
0.313552
0.313808
0.314082
0.314373
0.314679
0.315002
0.31534
0.315693
0.31606
0.316441
0.316834
0.317239
0.317657
0.318084
0.318522
0.318969
0.319425
0.319889
0.32036
0.320837
0.32132
0.321809
0.322302
0.322799
0.323299
0.323802
0.324306
0.324813
0.32532
0.325827
0.326335
0.326842
0.327347
0.327851
0.328353
0.328852
0.329348
0.329841
0.330329
0.330813
0.331293
0.331767
0.332236
0.332699
0.333156
0.333606
0.33405
0.334487
0.334917
0.335339
0.335754
0.336161
0.336561
0.336952
0.337336
0.337711
0.338079
0.338437
0.338788
0.339129
0.339462
0.339787
0.340102
0.340408
0.340705
0.340993
0.341271
0.341539
0.341798
0.342047
0.342286
0.342515
0.342734
0.342942
0.343139
0.343326
0.343502
0.343667
0.34382
0.343962
0.344092
0.344211
0.344318
0.344413
0.344495
0.344565
0.344622
0.344667
0.344698
0.344717
0.344722
0.344713
0.344691
0.344655
0.344606
0.344542
0.344464
0.344371
0.344264
0.344143
0.344006
0.343855
0.343689
0.343508
0.343311
0.343099
0.342872
0.34263
0.342372
0.342101
0.34181
0.341508
0.341194
0.340863
0.340517
0.340155
0.339778
0.339387
0.338981
0.33856
0.338126
0.337679
0.33722
0.336758
0.336273
0.335855
0.335202
0.317439
0.317383
0.31734
0.317296
0.317241
0.317173
0.317093
0.317002
0.316901
0.31679
0.31667
0.316541
0.316406
0.316263
0.316114
0.31596
0.315802
0.31564
0.315475
0.315309
0.315142
0.314974
0.314808
0.314643
0.314481
0.314322
0.314168
0.31402
0.313878
0.313743
0.313616
0.313499
0.313391
0.313294
0.313209
0.313136
0.313077
0.313031
0.313
0.312983
0.312983
0.312999
0.313031
0.313081
0.313148
0.313233
0.313336
0.313457
0.313596
0.313754
0.31393
0.314124
0.314336
0.314566
0.314813
0.315078
0.315359
0.315657
0.315971
0.3163
0.316644
0.317002
0.317374
0.317758
0.318155
0.318564
0.318984
0.319414
0.319853
0.320301
0.320758
0.321222
0.321692
0.322169
0.322651
0.323139
0.32363
0.324125
0.324623
0.325123
0.325626
0.326129
0.326634
0.327138
0.327643
0.328147
0.328649
0.32915
0.329648
0.330144
0.330637
0.331126
0.331611
0.332092
0.332568
0.333039
0.333504
0.333964
0.334417
0.334864
0.335304
0.335738
0.336164
0.336583
0.336995
0.337398
0.337794
0.338182
0.338562
0.338934
0.339298
0.339653
0.339999
0.340337
0.340666
0.340987
0.341298
0.3416
0.341892
0.342175
0.342449
0.342712
0.342966
0.34321
0.343443
0.343666
0.343878
0.34408
0.344271
0.344451
0.344619
0.344776
0.344922
0.345056
0.345177
0.345287
0.345385
0.34547
0.345542
0.345601
0.345648
0.345681
0.345701
0.345707
0.3457
0.345679
0.345644
0.345595
0.345531
0.345453
0.34536
0.345253
0.345131
0.344994
0.344842
0.344674
0.344491
0.344294
0.34408
0.343852
0.343608
0.343348
0.343074
0.342783
0.342478
0.34216
0.341827
0.341477
0.341113
0.340733
0.340339
0.33993
0.339506
0.339068
0.338618
0.338154
0.337684
0.337191
0.336753
0.336151
0.31924
0.319174
0.319123
0.319073
0.319011
0.318935
0.318848
0.318749
0.31864
0.318521
0.318393
0.318257
0.318114
0.317964
0.317808
0.317647
0.317482
0.317313
0.317142
0.316969
0.316796
0.316622
0.316449
0.316278
0.31611
0.315945
0.315785
0.31563
0.315482
0.31534
0.315207
0.315083
0.314968
0.314864
0.314771
0.31469
0.314623
0.314569
0.314529
0.314504
0.314494
0.3145
0.314523
0.314563
0.31462
0.314694
0.314787
0.314897
0.315025
0.315171
0.315336
0.315518
0.315719
0.315937
0.316172
0.316425
0.316695
0.316981
0.317282
0.3176
0.317932
0.318278
0.318638
0.319012
0.319398
0.319795
0.320204
0.320623
0.321052
0.321491
0.321937
0.322392
0.322853
0.323322
0.323795
0.324275
0.324759
0.325247
0.325738
0.326232
0.326729
0.327227
0.327727
0.328228
0.328729
0.329229
0.329729
0.330228
0.330725
0.33122
0.331713
0.332202
0.332688
0.33317
0.333648
0.334121
0.334589
0.335051
0.335508
0.335959
0.336403
0.33684
0.337271
0.337695
0.338111
0.33852
0.338921
0.339314
0.3397
0.340077
0.340446
0.340807
0.34116
0.341503
0.341838
0.342165
0.342482
0.34279
0.343088
0.343377
0.343656
0.343926
0.344185
0.344435
0.344673
0.344902
0.34512
0.345327
0.345522
0.345707
0.34588
0.346042
0.346192
0.346329
0.346455
0.346569
0.346669
0.346758
0.346833
0.346895
0.346944
0.346979
0.347001
0.347009
0.347003
0.346983
0.346949
0.3469
0.346837
0.346759
0.346666
0.346558
0.346436
0.346297
0.346144
0.345976
0.345791
0.345592
0.345377
0.345146
0.344899
0.344637
0.34436
0.344067
0.343759
0.343437
0.343099
0.342746
0.342378
0.341995
0.341596
0.341183
0.340755
0.340313
0.339857
0.339387
0.33891
0.338408
0.337956
0.33737
0.321493
0.32142
0.321363
0.321307
0.321238
0.321155
0.321059
0.320952
0.320834
0.320707
0.32057
0.320426
0.320274
0.320115
0.319951
0.319781
0.319608
0.319431
0.319252
0.319071
0.31889
0.318708
0.318528
0.318349
0.318173
0.318
0.317832
0.317669
0.317512
0.317363
0.317221
0.317088
0.316964
0.31685
0.316748
0.316658
0.31658
0.316515
0.316465
0.316428
0.316408
0.316402
0.316413
0.316441
0.316485
0.316546
0.316626
0.316722
0.316837
0.316969
0.31712
0.317288
0.317474
0.317678
0.317899
0.318137
0.318392
0.318663
0.31895
0.319252
0.31957
0.319902
0.320248
0.320607
0.320979
0.321363
0.321758
0.322164
0.32258
0.323006
0.32344
0.323883
0.324333
0.32479
0.325253
0.325722
0.326196
0.326675
0.327157
0.327643
0.328132
0.328624
0.329117
0.329612
0.330108
0.330604
0.3311
0.331596
0.33209
0.332584
0.333075
0.333564
0.33405
0.334532
0.335011
0.335486
0.335956
0.336421
0.336881
0.337335
0.337783
0.338225
0.33866
0.339088
0.339509
0.339923
0.34033
0.340729
0.34112
0.341503
0.341878
0.342245
0.342604
0.342954
0.343295
0.343628
0.343951
0.344266
0.344571
0.344866
0.345152
0.345428
0.345693
0.345949
0.346194
0.346428
0.346652
0.346864
0.347066
0.347256
0.347434
0.347601
0.347755
0.347897
0.348027
0.348145
0.348249
0.348341
0.348419
0.348484
0.348536
0.348573
0.348597
0.348607
0.348602
0.348584
0.34855
0.348502
0.348439
0.348361
0.348267
0.348159
0.348035
0.347896
0.347741
0.347571
0.347384
0.347182
0.346964
0.346731
0.346481
0.346216
0.345935
0.345638
0.345327
0.345
0.344659
0.344301
0.343929
0.343541
0.343138
0.342721
0.342288
0.341841
0.341379
0.340902
0.340417
0.339907
0.339444
0.338854
0.324211
0.324136
0.324074
0.324011
0.323936
0.323845
0.323741
0.323625
0.323498
0.323361
0.323215
0.323061
0.322899
0.322731
0.322557
0.322378
0.322195
0.322008
0.321819
0.321629
0.321438
0.321247
0.321057
0.320869
0.320683
0.320501
0.320323
0.32015
0.319983
0.319823
0.319671
0.319527
0.319392
0.319267
0.319153
0.319051
0.318961
0.318884
0.31882
0.318771
0.318737
0.318718
0.318714
0.318727
0.318756
0.318803
0.318866
0.318947
0.319046
0.319162
0.319296
0.319447
0.319616
0.319802
0.320006
0.320227
0.320464
0.320718
0.320988
0.321273
0.321573
0.321888
0.322216
0.322559
0.322914
0.323281
0.32366
0.32405
0.32445
0.32486
0.32528
0.325708
0.326143
0.326587
0.327037
0.327493
0.327955
0.328422
0.328893
0.329369
0.329848
0.33033
0.330815
0.331302
0.331791
0.33228
0.332771
0.333262
0.333752
0.334242
0.33473
0.335217
0.335702
0.336184
0.336663
0.337138
0.33761
0.338076
0.338538
0.338995
0.339446
0.339891
0.34033
0.340763
0.341188
0.341607
0.342019
0.342423
0.34282
0.343209
0.34359
0.343963
0.344328
0.344684
0.345032
0.345371
0.345701
0.346022
0.346333
0.346635
0.346927
0.347209
0.347482
0.347743
0.347995
0.348235
0.348465
0.348683
0.34889
0.349085
0.349269
0.349441
0.3496
0.349747
0.349881
0.350003
0.350111
0.350206
0.350288
0.350356
0.35041
0.35045
0.350476
0.350487
0.350484
0.350466
0.350433
0.350385
0.350321
0.350243
0.350149
0.35004
0.349915
0.349774
0.349617
0.349444
0.349255
0.349051
0.34883
0.348593
0.34834
0.348071
0.347786
0.347485
0.347169
0.346838
0.346491
0.346129
0.345752
0.345359
0.344952
0.344529
0.344091
0.343638
0.34317
0.342687
0.342194
0.341675
0.341201
0.340599
0.327418
0.327341
0.327275
0.327205
0.327122
0.327023
0.32691
0.326785
0.326648
0.326501
0.326345
0.326179
0.326007
0.325827
0.325642
0.325452
0.325258
0.32506
0.32486
0.324659
0.324456
0.324254
0.324053
0.323853
0.323656
0.323462
0.323273
0.323088
0.322909
0.322737
0.322572
0.322415
0.322268
0.32213
0.322002
0.321886
0.321782
0.32169
0.321612
0.321547
0.321497
0.321462
0.321442
0.321438
0.32145
0.321479
0.321525
0.321587
0.321667
0.321765
0.321879
0.322011
0.322161
0.322328
0.322511
0.322712
0.322929
0.323163
0.323412
0.323677
0.323957
0.324252
0.324561
0.324883
0.325218
0.325566
0.325926
0.326297
0.326678
0.32707
0.327472
0.327882
0.328301
0.328727
0.329161
0.329602
0.330048
0.330501
0.330959
0.331421
0.331888
0.332358
0.332832
0.333308
0.333787
0.334268
0.334751
0.335234
0.335719
0.336203
0.336687
0.33717
0.337651
0.338131
0.338608
0.339082
0.339553
0.34002
0.340483
0.340941
0.341394
0.341841
0.342283
0.342718
0.343148
0.34357
0.343986
0.344394
0.344796
0.34519
0.345576
0.345954
0.346325
0.346687
0.34704
0.347385
0.347721
0.348048
0.348366
0.348674
0.348972
0.34926
0.349539
0.349807
0.350064
0.35031
0.350545
0.350769
0.350982
0.351183
0.351371
0.351548
0.351712
0.351863
0.352002
0.352127
0.352239
0.352338
0.352422
0.352493
0.352549
0.352592
0.352619
0.352632
0.35263
0.352613
0.35258
0.352532
0.352469
0.35239
0.352295
0.352184
0.352058
0.351915
0.351755
0.35158
0.351388
0.35118
0.350956
0.350715
0.350458
0.350185
0.349896
0.349591
0.34927
0.348934
0.348582
0.348215
0.347832
0.347434
0.347021
0.346592
0.346149
0.34569
0.345216
0.344726
0.344225
0.343698
0.343213
0.342596
0.331137
0.331058
0.330986
0.330909
0.330817
0.330709
0.330587
0.330451
0.330304
0.330145
0.329977
0.3298
0.329615
0.329423
0.329225
0.329023
0.328816
0.328605
0.328392
0.328178
0.327962
0.327747
0.327533
0.32732
0.327109
0.326902
0.326699
0.3265
0.326307
0.326121
0.325942
0.32577
0.325608
0.325455
0.325312
0.32518
0.325059
0.324951
0.324855
0.324773
0.324705
0.324652
0.324614
0.32459
0.324583
0.324592
0.324618
0.32466
0.324719
0.324795
0.324888
0.324999
0.325126
0.32527
0.325432
0.32561
0.325804
0.326015
0.326241
0.326483
0.32674
0.327012
0.327298
0.327597
0.32791
0.328235
0.328572
0.328921
0.329281
0.329652
0.330032
0.330422
0.33082
0.331227
0.331641
0.332063
0.332492
0.332927
0.333367
0.333813
0.334264
0.33472
0.335179
0.335643
0.336109
0.336578
0.33705
0.337524
0.337999
0.338475
0.338951
0.339428
0.339903
0.340378
0.340851
0.341322
0.341791
0.342256
0.342717
0.343174
0.343627
0.344075
0.344517
0.344954
0.345385
0.345809
0.346227
0.346639
0.347043
0.347441
0.347831
0.348213
0.348588
0.348954
0.349312
0.349662
0.350003
0.350335
0.350658
0.350971
0.351275
0.351568
0.351852
0.352125
0.352388
0.352639
0.35288
0.353109
0.353326
0.353531
0.353725
0.353906
0.354074
0.354229
0.354371
0.3545
0.354616
0.354717
0.354804
0.354877
0.354936
0.35498
0.35501
0.355023
0.355022
0.355006
0.354973
0.354925
0.354861
0.354781
0.354685
0.354573
0.354444
0.354299
0.354137
0.353959
0.353764
0.353552
0.353324
0.353079
0.352818
0.35254
0.352247
0.351936
0.351611
0.351269
0.350912
0.350539
0.35015
0.349747
0.349328
0.348893
0.348444
0.347979
0.347499
0.347001
0.346493
0.345958
0.345463
0.344831
0.335391
0.335309
0.335231
0.335144
0.335043
0.334925
0.334792
0.334645
0.334486
0.334315
0.334133
0.333943
0.333744
0.333539
0.333327
0.333109
0.332888
0.332662
0.332435
0.332205
0.331975
0.331744
0.331515
0.331286
0.33106
0.330838
0.330619
0.330404
0.330196
0.329993
0.329797
0.329609
0.32943
0.329259
0.329099
0.328949
0.32881
0.328683
0.328569
0.328467
0.328379
0.328306
0.328246
0.328202
0.328173
0.328161
0.328164
0.328183
0.328219
0.328271
0.328341
0.328427
0.32853
0.328649
0.328786
0.328938
0.329107
0.329292
0.329493
0.329709
0.32994
0.330185
0.330445
0.330719
0.331006
0.331305
0.331617
0.331941
0.332276
0.332621
0.332977
0.333343
0.333717
0.334101
0.334493
0.334892
0.335299
0.335713
0.336133
0.336559
0.336991
0.337428
0.33787
0.338316
0.338767
0.339221
0.339678
0.340138
0.340601
0.341065
0.341531
0.341998
0.342465
0.342931
0.343397
0.343862
0.344324
0.344785
0.345242
0.345696
0.346145
0.346591
0.347031
0.347467
0.347897
0.348321
0.34874
0.349152
0.349557
0.349956
0.350348
0.350732
0.351109
0.351478
0.351839
0.352192
0.352536
0.352872
0.353198
0.353515
0.353823
0.35412
0.354408
0.354685
0.354951
0.355207
0.355451
0.355684
0.355906
0.356115
0.356312
0.356496
0.356668
0.356826
0.356972
0.357103
0.357221
0.357325
0.357415
0.35749
0.35755
0.357595
0.357626
0.35764
0.357639
0.357623
0.35759
0.357542
0.357477
0.357396
0.357298
0.357183
0.357052
0.356905
0.35674
0.356558
0.35636
0.356145
0.355913
0.355664
0.355398
0.355115
0.354817
0.354501
0.35417
0.353823
0.35346
0.353081
0.352687
0.352277
0.351852
0.351412
0.350957
0.350485
0.349999
0.349495
0.34898
0.348437
0.347932
0.347287
0.340205
0.34012
0.340034
0.339938
0.339826
0.339696
0.339551
0.339391
0.339218
0.339033
0.338837
0.338631
0.338417
0.338195
0.337967
0.337733
0.337494
0.337252
0.337008
0.336761
0.336513
0.336265
0.336018
0.335772
0.335529
0.335288
0.335051
0.334819
0.334592
0.334371
0.334157
0.33395
0.333751
0.333562
0.333381
0.333211
0.333052
0.332905
0.332769
0.332646
0.332536
0.33244
0.332358
0.332291
0.332239
0.332202
0.33218
0.332174
0.332185
0.332212
0.332255
0.332314
0.33239
0.332482
0.332591
0.332715
0.332856
0.333013
0.333185
0.333372
0.333574
0.33379
0.334021
0.334265
0.334523
0.334794
0.335077
0.335372
0.335678
0.335995
0.336323
0.336661
0.337008
0.337364
0.33773
0.338103
0.338484
0.338873
0.339268
0.339671
0.340079
0.340494
0.340914
0.34134
0.34177
0.342205
0.342644
0.343087
0.343533
0.343982
0.344433
0.344886
0.34534
0.345795
0.34625
0.346704
0.347158
0.347609
0.348059
0.348505
0.348949
0.349388
0.349824
0.350255
0.350681
0.351102
0.351517
0.351927
0.352331
0.352728
0.353119
0.353503
0.353879
0.354249
0.35461
0.354964
0.355309
0.355646
0.355974
0.356292
0.356602
0.356901
0.357191
0.357471
0.357739
0.357997
0.358244
0.358479
0.358703
0.358915
0.359114
0.359301
0.359475
0.359636
0.359783
0.359917
0.360036
0.360141
0.360232
0.360308
0.360369
0.360415
0.360446
0.360461
0.36046
0.360443
0.360409
0.36036
0.360293
0.36021
0.360111
0.359994
0.35986
0.35971
0.359542
0.359357
0.359155
0.358936
0.358699
0.358446
0.358175
0.357888
0.357584
0.357263
0.356927
0.356574
0.356205
0.35582
0.35542
0.355005
0.354574
0.354128
0.353666
0.353189
0.352697
0.352187
0.351665
0.351115
0.350602
0.349945
0.345609
0.34552
0.345425
0.345318
0.345193
0.34505
0.344891
0.344716
0.344527
0.344325
0.344112
0.343889
0.343656
0.343416
0.343168
0.342915
0.342657
0.342395
0.342131
0.341864
0.341597
0.341329
0.341061
0.340795
0.340532
0.340271
0.340014
0.339761
0.339514
0.339272
0.339037
0.338809
0.338589
0.338378
0.338176
0.337984
0.337803
0.337633
0.337474
0.337328
0.337194
0.337073
0.336967
0.336874
0.336796
0.336733
0.336684
0.336652
0.336634
0.336633
0.336647
0.336678
0.336724
0.336786
0.336865
0.336959
0.337068
0.337193
0.337334
0.337489
0.337659
0.337843
0.338041
0.338253
0.338478
0.338716
0.338967
0.339229
0.339503
0.339788
0.340084
0.34039
0.340706
0.341031
0.341365
0.341708
0.342059
0.342419
0.342786
0.34316
0.343541
0.343928
0.344322
0.344722
0.345128
0.345539
0.345955
0.346376
0.346801
0.34723
0.347662
0.348097
0.348534
0.348972
0.349412
0.349851
0.350291
0.35073
0.351167
0.351602
0.352035
0.352465
0.352891
0.353314
0.353732
0.354146
0.354555
0.354959
0.355357
0.355749
0.356136
0.356516
0.356889
0.357256
0.357615
0.357966
0.358309
0.358645
0.358971
0.359289
0.359598
0.359897
0.360187
0.360466
0.360735
0.360994
0.361241
0.361477
0.361701
0.361914
0.362114
0.362301
0.362476
0.362637
0.362785
0.362919
0.363039
0.363145
0.363236
0.363312
0.363373
0.363418
0.363448
0.363462
0.363461
0.363442
0.363408
0.363356
0.363288
0.363203
0.363101
0.362982
0.362845
0.362691
0.36252
0.362332
0.362126
0.361902
0.361661
0.361403
0.361128
0.360836
0.360527
0.360201
0.359858
0.3595
0.359125
0.358735
0.358329
0.357908
0.357471
0.357019
0.356552
0.356069
0.355571
0.355055
0.354528
0.353971
0.353451
0.352785
0.351634
0.35154
0.351434
0.351314
0.351174
0.351015
0.350839
0.350646
0.350438
0.350217
0.349983
0.349739
0.349485
0.349223
0.348953
0.348677
0.348396
0.348112
0.347824
0.347535
0.347244
0.346953
0.346663
0.346374
0.346087
0.345804
0.345524
0.345248
0.344978
0.344713
0.344455
0.344204
0.343961
0.343726
0.3435
0.343284
0.343078
0.342883
0.3427
0.342528
0.342368
0.342221
0.342088
0.341968
0.341862
0.34177
0.341693
0.341631
0.341584
0.341552
0.341535
0.341534
0.341548
0.341578
0.341623
0.341683
0.341759
0.341849
0.341955
0.342075
0.342209
0.342358
0.34252
0.342696
0.342885
0.343086
0.3433
0.343526
0.343763
0.344012
0.344272
0.344542
0.344822
0.345111
0.34541
0.345718
0.346035
0.34636
0.346694
0.347035
0.347383
0.347739
0.348102
0.348472
0.348848
0.34923
0.349618
0.350012
0.350411
0.350814
0.351222
0.351633
0.352048
0.352465
0.352884
0.353304
0.353725
0.354146
0.354566
0.354985
0.355402
0.355817
0.356229
0.356639
0.357045
0.357447
0.357845
0.358239
0.358628
0.359012
0.35939
0.359762
0.360128
0.360488
0.360841
0.361187
0.361525
0.361856
0.362178
0.362492
0.362797
0.363093
0.36338
0.363656
0.363923
0.364179
0.364424
0.364659
0.364881
0.365092
0.365291
0.365477
0.36565
0.36581
0.365957
0.36609
0.366209
0.366314
0.366403
0.366478
0.366538
0.366582
0.366611
0.366623
0.366619
0.366599
0.366562
0.366509
0.366438
0.366351
0.366246
0.366123
0.365984
0.365826
0.365651
0.365459
0.365249
0.365021
0.364776
0.364513
0.364233
0.363935
0.363621
0.36329
0.362942
0.362578
0.362198
0.361802
0.36139
0.360963
0.360521
0.360064
0.359591
0.359103
0.358599
0.358079
0.357547
0.356985
0.356459
0.355785
0.358315
0.358213
0.358095
0.357958
0.357801
0.357623
0.357426
0.357211
0.356981
0.356735
0.356477
0.356207
0.355927
0.355639
0.355342
0.35504
0.354732
0.354421
0.354106
0.35379
0.353473
0.353155
0.352839
0.352524
0.352211
0.351902
0.351596
0.351295
0.350999
0.350709
0.350425
0.350149
0.34988
0.349619
0.349367
0.349125
0.348893
0.348671
0.34846
0.34826
0.348073
0.347898
0.347735
0.347586
0.34745
0.347327
0.347219
0.347125
0.347045
0.34698
0.34693
0.346895
0.346874
0.346868
0.346877
0.346901
0.346939
0.346992
0.34706
0.347141
0.347237
0.347346
0.347468
0.347604
0.347753
0.347914
0.348087
0.348272
0.348469
0.348676
0.348895
0.349124
0.349364
0.349613
0.349872
0.35014
0.350418
0.350704
0.350998
0.351301
0.351612
0.351931
0.352257
0.352591
0.352932
0.35328
0.353635
0.353996
0.354363
0.354736
0.355114
0.355496
0.355882
0.356272
0.356665
0.35706
0.357456
0.357853
0.358251
0.358648
0.359044
0.359439
0.359833
0.360224
0.360613
0.360998
0.361381
0.36176
0.362134
0.362505
0.36287
0.36323
0.363585
0.363934
0.364277
0.364613
0.364943
0.365265
0.365579
0.365885
0.366183
0.366473
0.366753
0.367024
0.367285
0.367536
0.367777
0.368006
0.368225
0.368432
0.368627
0.368809
0.368979
0.369136
0.36928
0.36941
0.369526
0.369627
0.369714
0.369787
0.369844
0.369885
0.369911
0.369921
0.369914
0.369891
0.369851
0.369795
0.369721
0.36963
0.369521
0.369396
0.369252
0.369091
0.368912
0.368715
0.368501
0.368269
0.368019
0.367752
0.367467
0.367164
0.366845
0.366509
0.366156
0.365786
0.365401
0.364999
0.364582
0.36415
0.363702
0.363239
0.362762
0.362269
0.361761
0.361236
0.360699
0.360134
0.359603
0.358923
0.36569
0.365577
0.365443
0.365288
0.365109
0.364907
0.364684
0.364442
0.364183
0.363907
0.363618
0.363317
0.363005
0.362685
0.362356
0.362021
0.361682
0.361339
0.360993
0.360645
0.360297
0.35995
0.359603
0.359259
0.358917
0.358578
0.358244
0.357914
0.35759
0.357271
0.35696
0.356655
0.356358
0.356069
0.355789
0.355518
0.355257
0.355006
0.354766
0.354537
0.354319
0.354113
0.353919
0.353738
0.35357
0.353415
0.353273
0.353144
0.35303
0.352929
0.352842
0.35277
0.352711
0.352667
0.352636
0.35262
0.352618
0.35263
0.352655
0.352694
0.352747
0.352813
0.352891
0.352983
0.353087
0.353203
0.353331
0.353471
0.353622
0.353785
0.353958
0.354141
0.354335
0.354539
0.354753
0.354976
0.355209
0.35545
0.355701
0.35596
0.356228
0.356504
0.356788
0.357081
0.357381
0.357689
0.358005
0.358327
0.358657
0.358992
0.359334
0.359681
0.360032
0.36039
0.36075
0.361114
0.361479
0.361847
0.362215
0.362585
0.362955
0.363324
0.363693
0.364061
0.364426
0.36479
0.365152
0.365511
0.365866
0.366218
0.366566
0.366909
0.367248
0.367582
0.36791
0.368232
0.368548
0.368857
0.36916
0.369455
0.369742
0.370021
0.370292
0.370553
0.370805
0.371048
0.371281
0.371503
0.371714
0.371914
0.372102
0.372279
0.372443
0.372594
0.372732
0.372857
0.372969
0.373066
0.373148
0.373216
0.373268
0.373306
0.373327
0.373333
0.373322
0.373295
0.373252
0.373191
0.373113
0.373018
0.372906
0.372776
0.372628
0.372463
0.37228
0.372079
0.37186
0.371623
0.371369
0.371096
0.370807
0.3705
0.370175
0.369834
0.369476
0.369101
0.36871
0.368304
0.367882
0.367444
0.366992
0.366524
0.366042
0.365545
0.365033
0.364504
0.363964
0.363396
0.362861
0.362179
0.373801
0.373675
0.373522
0.373342
0.373135
0.372902
0.372646
0.372369
0.372072
0.371759
0.371431
0.37109
0.370739
0.370379
0.370011
0.369638
0.36926
0.368879
0.368496
0.368113
0.367729
0.367346
0.366966
0.366588
0.366213
0.365842
0.365475
0.365114
0.364758
0.364409
0.364066
0.363731
0.363403
0.363084
0.362773
0.362471
0.362179
0.361896
0.361624
0.361363
0.361113