/*--------------------------------*- C++ -*----------------------------------*\
| =========                 |                                                 |
| \\      /  F ield         | OpenFOAM: The Open Source CFD Toolbox           |
|  \\    /   O peration     | Version:  4.1                                   |
|   \\  /    A nd           | Web:      www.OpenFOAM.org                      |
|    \\/     M anipulation  |                                                 |
\*---------------------------------------------------------------------------*/
FoamFile
{
    version     2.0;
    format      ascii;
    class       volScalarField;
    location    "0.02";
    object      T;
}
// * * * * * * * * * * * * * * * * * * * * * * * * * * * * * * * * * * * * * //

dimensions      [0 0 0 1 0 0 0];

internalField   nonuniform List<scalar> 
12225
(
1.11552
1.23317
1.29917
1.34126
1.36974
1.38851
1.40119
1.41004
1.41642
1.42116
1.42479
1.42763
1.4299
1.43177
1.4333
1.43469
1.43581
1.43518
0.860947
0.707839
0.632408
0.594821
0.576427
0.569644
0.569414
0.572758
0.577971
0.584077
0.590513
0.596954
0.603214
0.609181
0.61481
0.619994
0.624958
0.628865
1.03458
1.08006
1.10414
1.11423
1.11556
1.11189
1.10559
1.09802
1.08996
1.08185
1.07398
1.06647
1.05942
1.05284
1.04677
1.04114
1.0362
1.0315
1.00165
0.998855
0.992981
0.988432
0.986044
0.98539
0.98593
0.9872
0.988859
0.990683
0.992533
0.994323
0.995998
0.997539
0.998939
1.00018
1.0013
1.00234
1.00023
1.00039
1.00026
1.00043
1.00067
1.0008
1.00084
1.0008
1.00072
1.00062
1.00051
1.00042
1.00033
1.00027
1.00023
1.00019
1.00021
1.00021
0.999584
0.999244
0.998899
0.998714
0.99862
0.998535
0.998453
0.99839
0.998342
0.998302
0.998271
0.998244
0.99822
0.998204
0.998189
0.998174
0.998175
0.998153
0.999929
1.00011
1.00016
1.00019
1.00023
1.00025
1.00026
1.00026
1.00026
1.00026
1.00026
1.00025
1.00024
1.00023
1.00022
1.00021
1.00021
1.00019
0.999971
1.00007
1.00006
1.00002
1.00001
1.00001
1.00001
1
1
1
1
1.00001
1.00002
1.00002
1.00002
1.00003
1.00003
1.00003
0.999979
1.00004
1.00003
1.00002
1.00002
1.00002
1.00002
1.00002
1.00002
1.00003
1.00003
1.00003
1.00003
1.00003
1.00003
1.00003
1.00003
1.00003
0.999978
1.00002
1.00001
0.999998
0.999998
1
0.999999
0.999997
0.999996
0.999997
0.999995
0.999996
1
0.999999
0.999995
1
0.999995
0.999997
0.999985
1.00001
1.00001
1
1
0.999997
0.999997
0.999997
1
1
1
0.999998
0.999997
1
1
1
0.999997
1
0.999988
1.00001
1.00001
0.999999
0.999997
0.999999
0.999998
0.999999
0.999998
0.999996
0.999996
0.999997
0.999999
0.999999
1
1
0.999996
1
0.999989
1.00001
1.00001
1
0.999999
0.999999
1
1
0.999999
0.999998
1
0.999998
0.999999
1
0.999999
1
0.999993
0.999997
0.999991
1
1.00001
1.00001
1
1
0.999997
0.999998
0.999999
0.999998
0.999996
0.999998
0.999997
0.999997
0.999997
0.999997
0.999994
1
0.999993
1
1.00001
1.00001
1
1
0.999998
0.999999
0.999999
0.999999
1
0.999999
0.999999
1
0.999995
0.999998
0.999992
0.999998
0.999994
1
1.00001
1
1
1
1
0.999999
0.999999
0.999997
0.999997
1
1
1
0.999999
0.999998
0.999993
0.999999
0.999993
1
1
1
1
1
1
1
0.999999
1
1
0.999999
0.999998
0.999999
1
1
0.999997
0.999999
0.999995
1
1
1.00001
1.00001
1.00001
1
1
1
1
1
1
1.00001
1.00001
1
1
0.999997
1
0.999995
1
1
1
1
1
1.00001
1
0.999999
1
1
1
0.999997
0.999995
0.999999
0.999997
0.999991
0.999995
0.999992
1
1
1
1
1
1.00001
1.00001
1.00001
1
1.00001
1.00001
1.00001
1.00001
1.00001
1.00001
1.00001
1.00002
0.999991
0.999999
1.00001
1
0.999996
0.999991
0.999991
0.999988
0.999986
0.999985
0.999981
0.999979
0.999975
0.999972
0.999972
0.999972
0.999964
0.999966
0.999988
1
1.00001
1.00001
1.00002
1.00002
1.00003
1.00004
1.00004
1.00005
1.00006
1.00006
1.00007
1.00007
1.00008
1.00008
1.00008
1.00009
0.999982
1
1
0.999974
0.999943
0.999921
0.9999
0.999878
0.99986
0.999842
0.999828
0.999815
0.999802
0.999795
0.999786
0.999779
0.99977
0.999767
0.999965
1.00007
1.00018
1.00024
1.0003
1.00037
1.00043
1.00049
1.00054
1.00058
1.00062
1.00065
1.00067
1.00069
1.00071
1.00072
1.00073
1.00074
0.999753
0.999568
0.999366
0.999131
0.998913
0.998704
0.998509
0.998342
0.998201
0.998088
0.998002
0.997936
0.997889
0.997856
0.997838
0.997829
0.997822
0.997814
0.999992
1.00043
1.00095
1.00167
1.00247
1.00316
1.00368
1.00405
1.00429
1.00442
1.00447
1.00446
1.0044
1.00432
1.00421
1.00409
1.00396
1.00386
0.999945
0.996247
0.990161
0.98452
0.980273
0.977358
0.975527
0.97452
0.974115
0.974128
0.974432
0.974931
0.975556
0.976259
0.977006
0.977763
0.978549
0.979195
1.0214
1.05634
1.0798
1.09471
1.10362
1.10848
1.11069
1.11118
1.11056
1.10922
1.10743
1.10537
1.10317
1.1009
1.09862
1.09638
1.09417
1.09224
0.922802
0.82784
0.774466
0.743959
0.725618
0.714657
0.708441
0.705217
0.70388
0.70374
0.704359
0.705454
0.70684
0.708395
0.710039
0.711701
0.713398
0.714943
1.06291
1.12901
1.16726
1.19166
1.20826
1.21975
1.22781
1.23361
1.2379
1.24113
1.24365
1.24564
1.24725
1.24858
1.24971
1.25063
1.25155
1.25214
-6.35319e-28
-1.64767e-28
-1.47806e-29
-4.28055e-29
6.13218e-31
1.31665e-29
2.93743e-29
4.47502e-29
5.23796e-29
5.15875e-29
4.61355e-29
3.96846e-29
3.36125e-29
2.776e-29
2.2015e-29
1.66261e-29
1.1933e-29
8.1496e-30
5.30878e-30
3.30643e-30
1.97245e-30
1.12629e-30
6.07199e-31
2.86081e-31
6.97225e-32
-9.79939e-32
-2.39765e-31
-3.55471e-31
-4.36515e-31
-4.77242e-31
-4.79384e-31
-4.50764e-31
-4.0186e-31
-3.42815e-31
-2.81743e-31
-2.24204e-31
-1.73399e-31
-1.3069e-31
-9.61712e-32
-6.91741e-32
-4.86485e-32
-3.34277e-32
-2.23934e-32
-1.45644e-32
-9.13111e-33
-5.45345e-33
-3.03996e-33
-1.51902e-33
-6.12244e-34
-1.13949e-34
1.25203e-34
2.10788e-34
2.14374e-34
1.81396e-34
1.38139e-34
9.78321e-35
6.55742e-35
4.20011e-35
2.57171e-35
1.47717e-35
7.90879e-36
7.34948e-36
2.59988e-35
9.70605e-35
2.46489e-34
2.45827e-34
-1.39211e-33
-1.01235e-32
-3.94337e-32
-1.0548e-31
-1.61162e-31
1.90767e-31
2.55857e-30
1.15774e-29
3.66097e-29
8.49431e-29
1.13972e-28
-1.50597e-28
-1.73329e-27
-7.55094e-27
-2.40853e-26
-6.11356e-26
-1.18768e-25
-1.27013e-25
2.50677e-25
2.14162e-24
8.64211e-24
2.69821e-23
7.12759e-23
1.62219e-22
3.09963e-22
4.39712e-22
1.57136e-22
-1.88158e-21
-9.48454e-21
-3.2251e-20
-9.22806e-20
-2.36514e-19
-5.5689e-19
-1.21716e-18
-2.47117e-18
-4.60968e-18
-7.63162e-18
-1.10445e-17
-1.33298e-17
-1.14216e-17
-3.04537e-19
2.70395e-17
7.91284e-17
1.64816e-16
2.91529e-16
4.63162e-16
6.78066e-16
9.27622e-16
1.19586e-15
1.46039e-15
1.69463e-15
1.87112e-15
1.96524e-15
1.95884e-15
1.84301e-15
1.61954e-15
1.30084e-15
9.08435e-16
4.7031e-16
1.75929e-17
-4.18882e-16
-8.11799e-16
-1.13993e-15
-1.38954e-15
-1.55466e-15
-1.6367e-15
-1.64314e-15
-1.5859e-15
-1.47919e-15
-1.33776e-15
-1.1759e-15
-1.00654e-15
-8.40133e-16
-6.84561e-16
-5.45037e-16
-4.24158e-16
-3.2263e-16
-2.39932e-16
-1.74476e-16
-1.24057e-16
-8.61655e-17
-5.84465e-17
-3.87114e-17
-2.50219e-17
-1.57467e-17
-9.64119e-18
-5.74525e-18
-3.31666e-18
-1.8522e-18
-9.95671e-19
-5.10952e-19
-2.48542e-19
-1.12472e-19
-4.56022e-20
-1.49922e-20
-2.3064e-21
1.96737e-21
2.74091e-21
2.29243e-21
1.58359e-21
9.87822e-22
5.76429e-22
3.19898e-22
1.70373e-22
8.75187e-23
4.34618e-23
2.08616e-23
9.64518e-24
4.26182e-24
1.7667e-24
6.66038e-25
2.07857e-25
4.51598e-26
-8.25119e-28
5.46283e-27
-8.18984e-27
2.44156e-28
-3.40784e-28
-2.08046e-27
-4.83591e-27
-7.51318e-27
-9.10864e-27
-9.3024e-27
-8.43263e-27
-7.12725e-27
-5.86068e-27
-4.7707e-27
-3.81186e-27
-2.95047e-27
-2.19458e-27
-1.56374e-27
-1.06703e-27
-6.97719e-28
-4.3746e-28
-2.62969e-28
-1.51235e-28
-8.22778e-29
-4.00344e-29
-1.2534e-29
8.0442e-30
2.5557e-29
4.074e-29
5.26786e-29
6.02942e-29
6.32113e-29
6.18906e-29
5.73415e-29
5.07538e-29
4.32218e-29
3.56032e-29
2.84812e-29
2.21923e-29
1.68793e-29
1.25499e-29
9.12798e-30
6.49405e-30
4.5137e-30
3.05642e-30
2.0062e-30
1.26587e-30
7.57346e-31
4.19349e-31
2.04319e-31
7.56217e-32
5.28553e-33
-2.76397e-32
-3.83169e-32
-3.71701e-32
-3.08772e-32
-2.33206e-32
-1.64488e-32
-1.09957e-32
-7.02622e-33
-4.30369e-33
-2.49646e-33
-1.25194e-33
-2.06593e-34
7.67801e-34
-3.74354e-35
-1.19897e-32
-6.54714e-32
-2.20665e-31
-4.76415e-31
-2.09512e-31
3.82824e-30
2.24415e-29
8.05131e-29
2.05303e-28
3.09741e-28
-2.90737e-28
-4.2975e-27
-1.94684e-26
-6.21524e-26
-1.50742e-25
-2.47016e-25
-2.29311e-26
1.82698e-24
9.19427e-24
3.13813e-23
8.54648e-23
1.88658e-22
3.07672e-22
1.7337e-22
-1.25788e-21
-7.15014e-21
-2.57486e-20
-7.60945e-20
-1.97357e-19
-4.60098e-19
-9.69059e-19
-1.82407e-18
-2.95409e-18
-3.63855e-18
-1.36672e-18
1.04813e-17
4.64294e-17
1.32176e-16
3.06039e-16
6.17017e-16
1.11616e-15
1.84054e-15
2.79087e-15
3.90707e-15
5.04785e-15
5.98192e-15
6.39685e-15
5.92852e-15
4.2093e-15
9.28152e-16
-4.10773e-15
-1.09222e-14
-1.93419e-14
-2.89971e-14
-3.93524e-14
-4.97637e-14
-5.95501e-14
-6.80718e-14
-7.47984e-14
-7.93605e-14
-8.15782e-14
-8.14613e-14
-7.91883e-14
-7.50704e-14
-6.95113e-14
-6.29579e-14
-5.58498e-14
-4.8585e-14
-4.14967e-14
-3.48413e-14
-2.87893e-14
-2.34306e-14
-1.88026e-14
-1.48913e-14
-1.16483e-14
-9.00541e-15
-6.88413e-15
-5.20439e-15
-3.8916e-15
-2.87798e-15
-2.10293e-15
-1.51739e-15
-1.08034e-15
-7.5841e-16
-5.24845e-16
-3.5736e-16
-2.39274e-16
-1.57402e-16
-1.01583e-16
-6.43037e-17
-3.9899e-17
-2.42263e-17
-1.44057e-17
-8.38169e-18
-4.76619e-18
-2.64807e-18
-1.43266e-18
-7.56458e-19
-3.90219e-19
-1.9522e-19
-9.43881e-20
-4.43234e-20
-2.0213e-20
-8.92634e-21
-3.79864e-21
-1.5452e-21
-5.92405e-22
-2.08309e-22
-6.30814e-23
-1.3319e-23
8.34488e-25
3.07248e-24
2.1383e-24
9.40562e-25
1.33707e-25
1.89219e-25
6.19612e-27
7.76435e-27
1.39839e-25
3.87623e-25
6.42188e-25
8.12733e-25
8.63878e-25
8.09947e-25
6.93726e-25
5.62837e-25
4.4735e-25
3.53495e-25
2.75868e-25
2.10172e-25
1.55062e-25
1.10333e-25
7.55861e-26
4.98207e-26
3.15678e-26
1.9196e-26
1.11624e-26
6.14722e-27
3.08693e-27
1.16592e-27
-1.89827e-28
-1.31448e-27
-2.32793e-27
-3.20427e-27
-3.86397e-27
-4.24736e-27
-4.34537e-27
-4.19509e-27
-3.8602e-27
-3.41117e-27
-2.91137e-27
-2.41032e-27
-1.94203e-27
-1.5265e-27
-1.17261e-27
-8.81265e-28
-6.4824e-28
-4.66491e-28
-3.27877e-28
-2.2433e-28
-1.48548e-28
-9.43156e-29
-5.65402e-29
-3.11285e-29
-1.48155e-29
-5.00489e-30
3.46065e-31
2.80645e-30
3.53495e-30
3.34098e-30
2.74997e-30
2.0707e-30
1.45939e-30
9.74867e-31
6.21507e-31
3.79041e-31
2.2096e-31
1.23697e-31
6.59068e-32
6.79196e-33
-1.83235e-31
-8.40141e-31
-2.38436e-30
-3.48723e-30
7.04777e-30
7.337e-29
3.10664e-28
8.78165e-28
1.49181e-27
-7.57346e-28
-1.78984e-26
-8.424e-26
-2.66103e-25
-6.01114e-25
-7.26867e-25
1.42852e-24
1.30692e-23
5.30532e-23
1.57914e-22
3.64337e-22
5.8726e-22
1.76735e-22
-3.31493e-21
-1.69319e-20
-5.73748e-20
-1.57023e-19
-3.61695e-19
-6.88056e-19
-9.53433e-19
-2.7424e-19
4.18711e-18
1.99916e-17
6.48919e-17
1.76317e-16
4.24719e-16
9.23084e-16
1.79617e-15
3.12724e-15
4.85472e-15
6.61879e-15
7.59699e-15
6.37978e-15
9.51819e-16
-1.1164e-14
-3.25749e-14
-6.55224e-14
-1.113e-13
-1.69703e-13
-2.38643e-13
-3.14045e-13
-3.90093e-13
-4.59813e-13
-5.15913e-13
-5.51757e-13
-5.62295e-13
-5.44775e-13
-4.99129e-13
-4.27983e-13
-3.36298e-13
-2.30736e-13
-1.18864e-13
-8.32868e-15
9.39254e-14
1.82324e-13
2.5306e-13
3.04128e-13
3.35306e-13
3.47891e-13
3.44329e-13
3.27758e-13
3.01538e-13
2.69025e-13
2.33342e-13
1.971e-13
1.62349e-13
1.30557e-13
1.02556e-13
7.86828e-14
5.89713e-14
4.3174e-14
3.08877e-14
2.15671e-14
1.46889e-14
9.75292e-15
6.30712e-15
3.96275e-15
2.41302e-15
1.42466e-15
8.10665e-16
4.42261e-16
2.29379e-16
1.11183e-16
4.90074e-17
1.83387e-17
4.44715e-18
-9.62157e-19
-2.47676e-18
-2.40603e-18
-1.84653e-18
-1.25835e-18
-7.92949e-19
-4.71726e-19
-2.68092e-19
-1.46599e-19
-7.74703e-20
-3.96636e-20
-1.96931e-20
-9.47481e-21
-4.40355e-21
-1.96403e-21
-8.29555e-22
-3.24196e-22
-1.11405e-22
-3.07859e-23
-3.89743e-24
-7.65989e-26
2.49718e-24
-1.21948e-24
-1.61488e-23
-3.37951e-23
-4.65084e-23
-5.18793e-23
-5.05766e-23
-4.47263e-23
-3.68214e-23
-2.90176e-23
-2.24998e-23
-1.73985e-23
-1.3354e-23
-1.00712e-23
-7.40398e-24
-5.28023e-24
-3.64307e-24
-2.42736e-24
-1.5589e-24
-9.62169e-25
-5.67936e-25
-3.17561e-25
-1.63722e-25
-6.94389e-26
-7.16527e-27
4.1305e-26
8.50121e-26
1.25445e-25
1.59814e-25
1.84579e-25
1.97685e-25
1.9918e-25
1.90785e-25
1.75117e-25
1.54969e-25
1.32842e-25
1.10704e-25
8.99318e-26
7.13613e-26
5.53902e-26
4.20904e-26
3.13167e-26
2.27973e-26
1.6204e-26
1.12028e-26
7.48571e-27
4.78536e-27
2.878e-27
1.57912e-27
7.36883e-28
2.26712e-28
-5.2208e-29
-1.79246e-28
-2.14244e-28
-1.99772e-28
-1.63937e-28
-1.23533e-28
-8.72124e-29
-5.83172e-29
-3.71381e-29
-2.25201e-29
-1.28706e-29
-6.73705e-30
-3.22739e-30
-2.62123e-30
-7.06806e-30
-1.80441e-29
-1.56615e-29
1.20179e-28
7.96998e-28
2.8653e-27
6.58173e-27
5.01702e-27
-3.87739e-26
-2.43956e-25
-8.65059e-25
-2.10231e-24
-2.75333e-24
4.6468e-24
4.60716e-23
1.85886e-22
5.27392e-22
1.07023e-21
1.05384e-21
-3.0391e-21
-2.20662e-20
-8.16558e-20
-2.2593e-19
-4.87409e-19
-7.30696e-19
-1.41674e-19
4.11196e-18
1.98669e-17
6.56668e-17
1.7976e-16
4.30144e-16
9.14939e-16
1.72251e-15
2.78078e-15
3.45495e-15
1.78508e-15
-6.05128e-15
-2.63563e-14
-6.78532e-14
-1.40652e-13
-2.54006e-13
-4.12991e-13
-6.14656e-13
-8.44548e-13
-1.07468e-12
-1.26389e-12
-1.36107e-12
-1.31117e-12
-1.06323e-12
-5.7905e-13
1.59013e-13
1.14285e-12
2.33714e-12
3.68197e-12
5.09867e-12
6.49859e-12
7.79296e-12
8.90237e-12
9.76445e-12
1.0339e-11
1.061e-11
1.05841e-11
1.02874e-11
9.76153e-12
9.05805e-12
8.2317e-12
7.33562e-12
6.41772e-12
5.51846e-12
4.66866e-12
3.88822e-12
3.19037e-12
2.58065e-12
2.05884e-12
1.62087e-12
1.25961e-12
9.66117e-13
7.31371e-13
5.46413e-13
4.02613e-13
2.92435e-13
2.09257e-13
1.47422e-13
1.02244e-13
6.97093e-14
4.66775e-14
3.07042e-14
1.98123e-14
1.25314e-14
7.76329e-15
4.70418e-15
2.78863e-15
1.61698e-15
9.1535e-16
5.0551e-16
2.7203e-16
1.42452e-16
7.25565e-17
3.58418e-17
1.71176e-17
7.88754e-18
3.49234e-18
1.47466e-18
5.85716e-19
2.12945e-19
6.64126e-20
1.40773e-20
-1.62009e-21
-4.46569e-21
-3.6118e-21
-2.21285e-21
-1.13765e-21
-4.94032e-22
-1.4621e-22
-5.35631e-23
-3.71229e-22
4.64613e-23
9.89257e-22
1.79474e-21
2.20997e-21
2.27286e-21
2.09176e-21
1.77857e-21
1.42626e-21
1.10261e-21
8.40807e-22
6.40601e-22
4.86271e-22
3.64607e-22
2.67983e-22
1.92054e-22
1.33747e-22
9.02777e-23
5.89051e-23
3.70172e-23
2.22741e-23
1.27068e-23
6.72596e-24
3.07708e-24
7.90697e-25
-8.35385e-25
-2.22903e-24
-3.55601e-24
-4.78857e-24
-5.81263e-24
-6.52147e-24
-6.86358e-24
-6.8493e-24
-6.53474e-24
-5.99938e-24
-5.32693e-24
-4.59246e-24
-3.85588e-24
-3.16018e-24
-2.53255e-24
-1.98685e-24
-1.52685e-24
-1.14927e-24
-8.4644e-25
-6.08549e-25
-4.2529e-25
-2.86943e-25
-1.849e-25
-1.11786e-25
-6.13397e-26
-2.82417e-26
-7.98995e-27
3.16572e-27
8.25259e-27
9.6044e-27
8.91633e-27
7.3306e-27
5.5452e-27
3.92982e-27
2.63421e-27
1.67755e-27
1.01407e-27
5.75785e-28
2.95551e-28
1.13817e-28
-2.48995e-29
-1.5486e-28
-1.3251e-28
9.4767e-28
5.98403e-27
1.99663e-26
3.82642e-26
-1.1158e-26
-4.35976e-25
-2.05372e-24
-5.98523e-24
-1.02673e-23
4.33109e-24
1.12393e-22
5.05421e-22
1.47393e-21
2.8484e-21
1.58061e-21
-1.5136e-20
-8.36521e-20
-2.78017e-19
-6.80522e-19
-1.16032e-18
-5.92094e-19
5.18158e-18
2.75101e-17
9.10936e-17
2.3728e-16
5.05781e-16
8.4409e-16
8.32645e-16
-9.8001e-16
-8.42482e-15
-2.9923e-14
-8.07236e-14
-1.8229e-13
-3.58484e-13
-6.257e-13
-9.77257e-13
-1.36451e-12
-1.67962e-12
-1.7465e-12
-1.32602e-12
-1.39377e-13
2.09113e-12
5.58886e-12
1.0467e-11
1.66816e-11
2.40051e-11
3.20285e-11
4.01931e-11
4.78505e-11
5.43402e-11
5.90747e-11
6.16135e-11
6.17144e-11
5.93589e-11
5.47469e-11
4.82623e-11
4.04216e-11
3.1813e-11
2.30326e-11
1.462e-11
7.00918e-12
5.18651e-13
-4.66799e-12
-8.49493e-12
-1.10162e-11
-1.23676e-11
-1.27325e-11
-1.23286e-11
-1.13773e-11
-1.00827e-11
-8.62136e-12
-7.1372e-12
-5.73134e-12
-4.4664e-12
-3.37892e-12
-2.47959e-12
-1.76767e-12
-1.22073e-12
-8.14876e-13
-5.24161e-13
-3.23211e-13
-1.89442e-13
-1.03799e-13
-5.20686e-14
-2.2411e-14
-6.60607e-15
8.54986e-16
3.70594e-15
4.2112e-15
3.68848e-15
2.84773e-15
2.02823e-15
1.3609e-15
8.70112e-16
5.33912e-16
3.15764e-16
1.80515e-16
1.00019e-16
5.38199e-17
2.81652e-17
1.43463e-17
7.11345e-18
3.43108e-18
1.60687e-18
7.27969e-19
3.16939e-19
1.31069e-19
5.04849e-20
1.74486e-20
5.07811e-21
9.20052e-22
5.65946e-21
2.57859e-20
1.00129e-21
-3.86624e-20
-6.56459e-20
-7.57449e-20
-7.40515e-20
-6.56951e-20
-5.45008e-20
-4.30296e-20
-3.29094e-20
-2.48567e-20
-1.87722e-20
-1.41612e-20
-1.05955e-20
-7.80735e-21
-5.63498e-21
-3.96832e-21
-2.71847e-21
-1.80593e-21
-1.15878e-21
-7.13772e-22
-4.17893e-22
-2.28276e-22
-1.10934e-22
-3.90933e-23
7.83459e-24
4.42424e-23
7.79683e-23
1.10947e-22
1.41314e-22
1.65979e-22
1.82484e-22
1.89802e-22
1.88323e-22
1.79454e-22
1.65108e-22
1.47296e-22
1.27839e-22
1.08218e-22
8.95283e-23
7.24894e-23
5.7499e-23
4.46997e-23
3.40479e-23
2.53793e-23
1.84644e-23
1.30526e-23
8.90133e-24
5.79116e-24
3.52894e-24
1.94541e-24
8.9196e-25
2.38626e-25
-1.26114e-25
-2.94699e-25
-3.40153e-25
-3.16783e-25
-2.62082e-25
-1.99606e-25
-1.42302e-25
-9.57668e-26
-6.10443e-26
-3.67692e-26
-2.06539e-26
-1.04307e-26
-4.3536e-27
-1.21212e-27
7.86636e-28
8.00314e-27
3.90211e-26
1.21204e-25
1.97295e-25
-2.85838e-25
-3.4223e-24
-1.388e-23
-3.40756e-23
-3.23543e-23
1.62002e-22
1.06946e-21
3.64815e-21
7.98617e-21
6.72948e-21
-3.42329e-20
-2.12396e-19
-7.09975e-19
-1.6298e-18
-2.13986e-18
2.11519e-18
2.4553e-17
9.49363e-17
2.56268e-16
5.07953e-16
5.82864e-16
-6.7478e-16
-6.71625e-15
-2.59244e-14
-7.55161e-14
-1.84958e-13
-3.91761e-13
-7.0756e-13
-1.07218e-12
-1.28512e-12
-9.36637e-13
6.29645e-13
4.29039e-12
1.10283e-11
2.17267e-11
3.68986e-11
5.64007e-11
7.92019e-11
1.03277e-10
1.25671e-10
1.42765e-10
1.50697e-10
1.45905e-10
1.25684e-10
8.86711e-11
3.51314e-11
-3.30006e-11
-1.12245e-10
-1.97964e-10
-2.84877e-10
-3.67631e-10
-4.41341e-10
-5.02041e-10
-5.46973e-10
-5.74693e-10
-5.85035e-10
-5.79069e-10
-5.58794e-10
-5.26817e-10
-4.86058e-10
-4.39476e-10
-3.89874e-10
-3.39711e-10
-2.90885e-10
-2.44938e-10
-2.02914e-10
-1.65428e-10
-1.32785e-10
-1.0497e-10
-8.17024e-11
-6.26084e-11
-4.72203e-11
-3.50533e-11
-2.55964e-11
-1.83772e-11
-1.29647e-11
-8.9847e-12
-6.11183e-12
-4.07448e-12
-2.66509e-12
-1.70793e-12
-1.07109e-12
-6.56746e-13
-3.93379e-13
-2.299e-13
-1.30939e-13
-7.25617e-14
-3.9053e-14
-2.03637e-14
-1.02535e-14
-4.96348e-15
-2.29301e-15
-9.98836e-16
-4.01545e-16
-1.42089e-16
-3.8322e-17
-1.96908e-18
7.57187e-18
7.81812e-18
5.69474e-18
3.57547e-18
2.04685e-18
1.09017e-18
5.42803e-19
2.50866e-19
1.06393e-19
3.68977e-20
-3.18568e-19
-1.10161e-18
-1.54065e-19
1.06134e-18
1.77554e-18
1.9815e-18
1.88281e-18
1.63603e-18
1.33976e-18
1.05071e-18
8.0084e-19
6.03005e-19
4.53935e-19
3.41842e-19
2.56105e-19
1.89683e-19
1.38154e-19
9.85522e-20
6.863e-20
4.65042e-20
3.05406e-20
1.93257e-20
1.16751e-20
6.62717e-21
3.41684e-21
1.43658e-21
2.03842e-22
-6.50479e-22
-1.37149e-21
-2.07372e-21
-2.76432e-21
-3.39136e-21
-3.8909e-21
-4.21682e-21
-4.35179e-21
-4.30532e-21
-4.1058e-21
-3.7913e-21
-3.40198e-21
-2.9748e-21
-2.54055e-21
-2.12265e-21
-1.7372e-21
-1.39377e-21
-1.09653e-21
-8.45583e-22
-6.38245e-22
-4.70205e-22
-3.36523e-22
-2.32275e-22
-1.52884e-22
-9.41997e-23
-5.24583e-23
-2.42343e-23
-6.42628e-24
3.71219e-24
8.524e-24
9.91056e-24
9.32407e-24
7.79603e-24
5.99642e-24
4.31033e-24
2.91758e-24
1.86435e-24
1.12071e-24
6.23251e-25
3.03376e-25
1.03804e-25
-1.05586e-26
-3.37685e-26
1.17602e-25
5.7308e-25
9.36453e-25
-2.11789e-24
-2.03373e-23
-7.58183e-23
-1.5751e-22
-4.74472e-24
1.47977e-21
6.95903e-21
1.88592e-20
2.52146e-20
-4.81322e-20
-4.34491e-19
-1.57797e-18
-3.62326e-18
-3.82916e-18
1.09055e-17
7.80728e-17
2.69063e-16
6.38416e-16
9.51448e-16
-1.46162e-16
-6.99419e-15
-3.00024e-14
-8.84444e-14
-2.06653e-13
-3.87322e-13
-5.29924e-13
-2.47586e-13
1.38113e-12
5.92302e-12
1.55612e-11
3.2708e-11
5.92297e-11
9.53509e-11
1.38448e-10
1.82059e-10
2.15455e-10
2.24077e-10
1.90945e-10
9.89672e-11
-6.61985e-11
-3.13221e-10
-6.42689e-10
-1.04573e-09
-1.504e-09
-1.991e-09
-2.47474e-09
-2.9218e-09
-3.30087e-09
-3.5863e-09
-3.76069e-09
-3.81638e-09
-3.75553e-09
-3.58913e-09
-3.33512e-09
-3.01615e-09
-2.65657e-09
-2.2796e-09
-1.90642e-09
-1.55419e-09
-1.23537e-09
-9.57605e-10
-7.24253e-10
-5.35407e-10
-3.87565e-10
-2.75779e-10
-1.94158e-10
-1.36563e-10
-9.72318e-11
-7.11394e-11
-5.41398e-11
-4.30398e-11
-3.56757e-11
-3.01222e-11
-2.56493e-11
-2.1754e-11
-1.82076e-11
-1.49481e-11
-1.19928e-11
-9.38398e-12
-7.15331e-12
-5.30979e-12
-3.83735e-12
-2.7001e-12
-1.85005e-12
-1.23453e-12
-8.02439e-13
-5.08125e-13
-3.135e-13
-1.88477e-13
-1.10424e-13
-6.3053e-14
-3.5088e-14
-1.90269e-14
-1.00539e-14
-5.17628e-15
-2.59571e-15
-1.2668e-15
-6.00812e-16
-2.76228e-16
-1.22604e-16
-5.2175e-17
-2.10407e-17
-7.87179e-18
-2.61895e-18
-6.95544e-19
-8.78459e-20
4.85854e-20
1.18581e-17
3.28475e-17
6.95188e-18
-2.16623e-17
-3.71802e-17
-4.10738e-17
-3.85731e-17
-3.32407e-17
-2.71246e-17
-2.12876e-17
-1.62728e-17
-1.22859e-17
-9.26664e-18
-6.99612e-18
-5.26584e-18
-3.93008e-18
-2.89421e-18
-2.0947e-18
-1.48503e-18
-1.02796e-18
-6.92225e-19
-4.51132e-19
-2.82299e-19
-1.67421e-19
-9.1836e-20
-4.38588e-20
-1.4092e-20
5.03503e-21
1.92313e-20
3.20291e-20
4.47777e-20
5.7227e-20
6.83621e-20
7.71057e-20
8.27241e-20
8.49608e-20
8.39893e-20
8.02872e-20
7.44947e-20
6.72955e-20
5.93312e-20
5.11505e-20
4.31842e-20
3.57416e-20
2.90191e-20
2.31167e-20
1.80579e-20
1.38112e-20
1.0312e-20
7.48054e-21
5.23413e-21
3.49353e-21
2.18429e-21
1.23628e-21
5.83047e-22
1.62111e-22
-8.37894e-23
-2.05077e-22
-2.43923e-22
-2.33521e-22
-1.9823e-22
-1.54495e-22
-1.12267e-22
-7.6598e-23
-4.91561e-23
-2.95352e-23
-1.63024e-23
-7.77144e-24
-2.4733e-24
7.35035e-25
2.93051e-24
5.23847e-24
6.30856e-24
-9.30427e-24
-9.64032e-23
-3.44307e-22
-6.02054e-22
7.11323e-22
9.31254e-21
3.60295e-20
7.65829e-20
1.40959e-20
-6.32942e-19
-2.98997e-18
-7.98858e-18
-1.06054e-17
1.81346e-17
1.64295e-16
5.81121e-16
1.30421e-15
1.43306e-15
-2.99405e-15
-2.24722e-14
-7.51765e-14
-1.71323e-13
-2.44167e-13
4.0239e-14
1.67657e-12
6.9029e-12
1.94759e-11
4.37697e-11
8.28013e-11
1.34798e-10
1.89075e-10
2.22393e-10
1.97293e-10
6.37504e-11
-2.35054e-10
-7.53042e-10
-1.52892e-09
-2.5735e-09
-3.85936e-09
-5.31559e-09
-6.82934e-09
-8.25491e-09
-9.42936e-09
-1.01928e-08
-1.0411e-08
-9.99336e-09
-8.90507e-09
-7.17461e-09
-4.8903e-09
-2.18989e-09
7.55259e-10
3.75912e-09
6.64015e-09
9.23771e-09
1.1423e-08
1.31057e-08
1.42452e-08
1.48402e-08
1.4925e-08
1.45605e-08
1.38258e-08
1.28093e-08
1.16005e-08
1.02825e-08
8.93012e-09
7.60459e-09
6.35202e-09
5.20707e-09
4.19106e-09
3.3115e-09
2.56852e-09
1.95384e-09
1.45919e-09
1.06895e-09
7.67711e-10
5.40134e-10
3.72011e-10
2.50646e-10
1.65019e-10
1.06032e-10
6.6404e-11
4.04576e-11
2.3925e-11
1.3692e-11
7.55116e-12
3.98884e-12
1.99877e-12
9.34282e-13
3.93923e-13
1.3754e-13
2.71876e-14
-1.29034e-14
-2.21807e-14
-1.98829e-14
-1.45947e-14
-9.63191e-15
-5.92337e-15
-3.45411e-15
-1.92825e-15
-1.03602e-15
-5.37102e-16
-2.68746e-16
-1.29502e-16
-5.98122e-17
-2.62475e-17
-1.08478e-17
-3.91709e-18
-3.24527e-16
-7.35517e-16
-1.96114e-16
3.40066e-16
6.21875e-16
6.92415e-16
6.51125e-16
5.6207e-16
4.60573e-16
3.63977e-16
2.80583e-16
2.13511e-16
1.62121e-16
1.23208e-16
9.34701e-17
7.04727e-17
5.25754e-17
3.86658e-17
2.79431e-17
1.9784e-17
1.36781e-17
9.19462e-18
5.97144e-18
3.70954e-18
2.16683e-18
1.14905e-18
4.99623e-19
8.96255e-20
-1.86042e-19
-4.04384e-19
-6.09e-19
-8.13103e-19
-1.00967e-18
-1.18307e-18
-1.31803e-18
-1.40442e-18
-1.43881e-18
-1.42373e-18
-1.366e-18
-1.27486e-18
-1.16039e-18
-1.03224e-18
-8.98924e-19
-7.67332e-19
-6.42638e-19
-5.28337e-19
-4.26431e-19
-3.3768e-19
-2.61919e-19
-1.98399e-19
-1.46073e-19
-1.03799e-19
-7.04338e-20
-4.48577e-20
-2.59661e-20
-1.26638e-20
-3.87571e-21
1.4224e-21
4.16526e-21
5.16157e-21
5.06996e-21
4.39203e-21
3.48172e-21
2.56574e-21
1.76932e-21
1.14313e-21
6.88102e-22
3.77429e-22
1.74784e-22
4.77022e-23
-2.50085e-23
-5.32395e-23
-4.9103e-23
-7.77114e-23
-3.67356e-22
-1.29342e-21
-2.16203e-21
4.0121e-21
4.12413e-20
1.46148e-19
2.46105e-19
-3.22932e-19
-3.76493e-18
-1.35764e-17
-2.53698e-17
9.21875e-18
2.57057e-16
1.02438e-15
2.26963e-15
1.46494e-15
-1.15594e-14
-6.05177e-14
-1.7162e-13
-2.90021e-13
-8.98373e-15
2.03369e-12
9.07853e-12
2.67747e-11
6.07068e-11
1.0697e-10
1.4235e-10
1.12414e-10
-7.49715e-11
-5.45688e-10
-1.44108e-09
-2.88488e-09
-4.93932e-09
-7.55845e-09
-1.05497e-08
-1.35553e-08
-1.60612e-08
-1.74401e-08
-1.70229e-08
-1.4191e-08
-8.47403e-09
3.63842e-10
1.22655e-08
2.68536e-08
4.34298e-08
6.10963e-08
7.88132e-08
9.55174e-08
1.10231e-07
1.22157e-07
1.30738e-07
1.35695e-07
1.37017e-07
1.34941e-07
1.29888e-07
1.22411e-07
1.13133e-07
1.02684e-07
9.16456e-08
8.05244e-08
6.97294e-08
5.95805e-08
5.02723e-08
4.19245e-08
3.45807e-08
2.82221e-08
2.28032e-08
1.82515e-08
1.44678e-08
1.13561e-08
8.82275e-09
6.78066e-09
5.15172e-09
3.86623e-09
2.86326e-09
2.09047e-09
1.50324e-09
1.06358e-09
7.39692e-10
5.05213e-10
3.38572e-10
2.22438e-10
1.43155e-10
9.01788e-11
5.55624e-11
3.34589e-11
1.96773e-11
1.12927e-11
6.31879e-12
3.44387e-12
1.82602e-12
9.40449e-13
4.69525e-13
2.26593e-13
1.05257e-13
4.67434e-14
1.96155e-14
7.60925e-15
2.59883e-15
6.73735e-16
2.9075e-17
-1.28259e-16
-1.25627e-16
-8.64698e-17
-5.07815e-17
-2.5491e-17
6.94087e-15
1.29553e-14
4.02268e-15
-4.17319e-15
-8.48685e-15
-9.66816e-15
-9.20058e-15
-8.02131e-15
-6.64326e-15
-5.3145e-15
-4.15107e-15
-3.19831e-15
-2.45543e-15
-1.8856e-15
-1.44637e-15
-1.10438e-15
-8.36271e-16
-6.25885e-16
-4.61628e-16
-3.34619e-16
-2.37714e-16
-1.64928e-16
-1.11217e-16
-7.23649e-17
-4.491e-17
-2.60395e-17
-1.34787e-17
-5.34879e-18
-5.85887e-20
3.69157e-18
6.80898e-18
9.7681e-18
1.26822e-17
1.54409e-17
1.78465e-17
1.97126e-17
2.09172e-17
2.14181e-17
2.12455e-17
2.0483e-17
1.92467e-17
1.76658e-17
1.58679e-17
1.39683e-17
1.2064e-17
1.02309e-17
8.52349e-18
6.97581e-18
5.60459e-18
4.41301e-18
3.39536e-18
2.54107e-18
1.83745e-18
1.27099e-18
8.27704e-19
4.92962e-19
2.51413e-19
8.72038e-20
-1.54816e-20
-7.16818e-20
-9.49231e-20
-9.66572e-20
-8.59849e-20
-6.96539e-20
-5.22507e-20
-3.65412e-20
-2.38443e-20
-1.44267e-20
-7.89757e-21
-3.5807e-21
-8.21146e-22
8.49241e-22
1.68458e-21
1.68375e-21
2.86535e-22
-3.75106e-21
-8.58291e-21
9.36705e-21
1.34334e-19
4.77457e-19
6.29237e-19
-2.29641e-18
-1.64112e-17
-4.75791e-17
-4.25763e-17
2.76579e-16
1.58573e-15
4.23606e-15
3.89048e-15
-2.02137e-14
-1.18498e-13
-3.37269e-13
-4.95447e-13
4.50442e-13
5.42808e-12
1.93801e-11
4.42557e-11
6.0617e-11
-1.21099e-11
-3.32556e-10
-1.13849e-09
-2.70481e-09
-5.25346e-09
-8.82364e-09
-1.31284e-08
-1.74345e-08
-2.04998e-08
-2.0609e-08
-1.57235e-08
-3.7426e-09
1.71557e-08
4.81455e-08
8.9424e-08
1.39988e-07
1.97571e-07
2.58763e-07
3.19318e-07
3.74625e-07
4.20163e-07
4.52118e-07
4.67787e-07
4.65861e-07
4.46525e-07
4.11381e-07
3.632e-07
3.05567e-07
2.42464e-07
1.77915e-07
1.15698e-07
5.87461e-08
9.30355e-09
-3.12339e-08
-6.22892e-08
-8.40002e-08
-9.70501e-08
-1.02538e-07
-1.01881e-07
-9.65507e-08
-8.79753e-08
-7.74448e-08
-6.60548e-08
-5.46883e-08
-4.39959e-08
-3.44029e-08
-2.61356e-08
-1.92691e-08
-1.37653e-08
-9.50293e-09
-6.31349e-09
-4.01087e-09
-2.41135e-09
-1.34637e-09
-6.71342e-10
-2.68779e-10
-4.76684e-11
5.90386e-11
9.83409e-11
1.01475e-10
8.79484e-11
6.90457e-11
5.06243e-11
3.52045e-11
2.34262e-11
1.50002e-11
9.27703e-12
5.55623e-12
3.22891e-12
1.82334e-12
1.00159e-12
5.35586e-13
2.78892e-13
1.414e-13
6.97494e-14
3.34195e-14
1.55088e-14
6.93768e-15
2.96973e-15
1.20207e-15
4.52563e-16
1.4736e-16
-1.20461e-13
-1.85097e-13
-6.4092e-14
3.98996e-14
9.58209e-14
1.13226e-13
1.10027e-13
9.75583e-14
8.21198e-14
6.68081e-14
5.30921e-14
4.15865e-14
3.24086e-14
2.52385e-14
1.96339e-14
1.52197e-14
1.17202e-14
8.93969e-15
6.73671e-15
5.0034e-15
3.65395e-15
2.61676e-15
1.83117e-15
1.24582e-15
8.17868e-16
5.1182e-16
2.98672e-16
1.54501e-16
5.88737e-17
-6.00521e-18
-5.43484e-17
-9.56407e-17
-1.34572e-16
-1.72106e-16
-2.06983e-16
-2.37113e-16
-2.60539e-16
-2.75969e-16
-2.82935e-16
-2.81731e-16
-2.73249e-16
-2.58757e-16
-2.39711e-16
-2.17591e-16
-1.93777e-16
-1.69471e-16
-1.45656e-16
-1.23076e-16
-1.02236e-16
-8.34244e-17
-6.67602e-17
-5.22449e-17
-3.98112e-17
-2.93562e-17
-2.07568e-17
-1.38734e-17
-8.54693e-18
-4.59685e-18
-1.82387e-18
-1.76178e-20
1.0322e-18
1.52342e-18
1.63135e-18
1.5024e-18
1.25079e-18
9.59636e-19
6.83518e-19
4.52329e-19
2.76271e-19
1.51661e-19
6.77694e-20
1.32049e-20
-2.00397e-20
-3.6249e-20
-3.79803e-20
-3.08425e-20
-2.02659e-20
3.69445e-20
3.51964e-19
1.22086e-18
1.36282e-18
-8.03543e-18
-4.96467e-17
-1.22224e-16
1.79468e-17
1.35213e-15
5.41707e-15
8.87512e-15
-1.58216e-14
-1.45659e-13
-4.34187e-13
-4.26029e-13
2.04739e-12
1.14449e-11
2.72015e-11
1.11157e-11
-1.87302e-10
-8.99824e-10
-2.55028e-09
-5.47663e-09
-9.6223e-09
-1.41657e-08
-1.71932e-08
-1.55333e-08
-4.87166e-09
1.97849e-08
6.33232e-08
1.2947e-07
2.19647e-07
3.31931e-07
4.60375e-07
5.94855e-07
7.21601e-07
8.24401e-07
8.86354e-07
8.91955e-07
8.29095e-07
6.907e-07
4.77557e-07
1.95994e-07
-1.41033e-07
-5.1555e-07
-9.06438e-07
-1.29158e-06
-1.64996e-06
-1.96351e-06
-2.21837e-06
-2.40546e-06
-2.52043e-06
-2.56476e-06
-2.54355e-06
-2.46491e-06
-2.33892e-06
-2.17658e-06
-1.98884e-06
-1.78613e-06
-1.57788e-06
-1.372e-06
-1.17475e-06
-9.90757e-07
-8.23145e-07
-6.73742e-07
-5.43255e-07
-4.31459e-07
-3.37423e-07
-2.59744e-07
-1.96732e-07
-1.46538e-07
-1.07279e-07
-7.71405e-08
-5.44451e-08
-3.76885e-08
-2.55662e-08
-1.69802e-08
-1.10305e-08
-7.00065e-09
-4.33525e-09
-2.61556e-09
-1.5346e-09
-8.7356e-10
-4.80978e-10
-2.55056e-10
-1.29441e-10
-6.22354e-11
-2.78438e-11
-1.11711e-11
-3.64218e-12
-5.81892e-13
4.42932e-13
6.30639e-13
5.31482e-13
3.74122e-13
2.38483e-13
1.42106e-13
8.03694e-14
4.34738e-14
2.25715e-14
1.12537e-14
5.39331e-15
2.39273e-15
1.73653e-12
2.18918e-12
8.22588e-13
-2.85887e-13
-9.01882e-13
-1.12099e-12
-1.12146e-12
-1.01758e-12
-8.74901e-13
-7.26811e-13
-5.89823e-13
-4.71387e-13
-3.74235e-13
-2.96539e-13
-2.34645e-13
-1.85106e-13
-1.4524e-13
-1.1307e-13
-8.71485e-14
-6.63636e-14
-4.98351e-14
-3.68283e-14
-2.67161e-14
-1.89591e-14
-1.30997e-14
-8.75022e-15
-5.58729e-15
-3.34249e-15
-1.78812e-15
-7.20273e-16
3.89008e-17
6.27521e-16
1.13482e-15
1.6044e-15
2.04568e-15
2.44804e-15
2.7931e-15
3.06336e-15
3.24691e-15
3.33916e-15
3.34255e-15
3.26528e-15
3.11953e-15
2.9197e-15
2.68088e-15
2.41765e-15