/*--------------------------------*- C++ -*----------------------------------*\
| =========                 |                                                 |
| \\      /  F ield         | OpenFOAM: The Open Source CFD Toolbox           |
|  \\    /   O peration     | Version:  4.1                                   |
|   \\  /    A nd           | Web:      www.OpenFOAM.org                      |
|    \\/     M anipulation  |                                                 |
\*---------------------------------------------------------------------------*/
FoamFile
{
    version     2.0;
    format      ascii;
    class       volScalarField;
    location    "0.015";
    object      T;
}
// * * * * * * * * * * * * * * * * * * * * * * * * * * * * * * * * * * * * * //

dimensions      [0 0 0 1 0 0 0];

internalField   nonuniform List<scalar> 
12225
(
1.11552
1.23317
1.29917
1.34126
1.36974
1.38851
1.40119
1.41004
1.41642
1.42116
1.42479
1.42763
1.4299
1.43177
1.4333
1.43469
1.43581
1.43518
0.860947
0.707839
0.632408
0.594821
0.576427
0.569644
0.569414
0.572758
0.577971
0.584077
0.590513
0.596954
0.603214
0.609181
0.61481
0.619994
0.624958
0.628865
1.03458
1.08006
1.10414
1.11423
1.11556
1.11189
1.10559
1.09802
1.08996
1.08185
1.07398
1.06647
1.05942
1.05284
1.04677
1.04114
1.0362
1.0315
1.00165
0.998855
0.992981
0.988432
0.986044
0.98539
0.98593
0.9872
0.988859
0.990683
0.992533
0.994323
0.995998
0.997539
0.998939
1.00018
1.0013
1.00234
1.00023
1.00039
1.00026
1.00043
1.00067
1.0008
1.00084
1.0008
1.00072
1.00062
1.00051
1.00042
1.00033
1.00027
1.00023
1.00019
1.00021
1.00021
0.999584
0.999244
0.998899
0.998714
0.99862
0.998535
0.998453
0.99839
0.998342
0.998302
0.998271
0.998244
0.99822
0.998204
0.998189
0.998174
0.998175
0.998153
0.999929
1.00011
1.00016
1.00019
1.00023
1.00025
1.00026
1.00026
1.00026
1.00026
1.00026
1.00025
1.00024
1.00023
1.00022
1.00021
1.00021
1.00019
0.999971
1.00007
1.00006
1.00002
1.00001
1.00001
1.00001
1
1
1
1
1.00001
1.00002
1.00002
1.00002
1.00003
1.00003
1.00003
0.999979
1.00004
1.00003
1.00002
1.00002
1.00002
1.00002
1.00002
1.00002
1.00003
1.00003
1.00003
1.00003
1.00003
1.00003
1.00003
1.00003
1.00003
0.999978
1.00002
1.00001
0.999998
0.999998
1
0.999999
0.999997
0.999996
0.999997
0.999995
0.999996
1
0.999999
0.999995
1
0.999995
0.999997
0.999985
1.00001
1.00001
1
1
0.999997
0.999997
0.999997
1
1
1
0.999998
0.999997
1
1
1
0.999997
1
0.999988
1.00001
1.00001
0.999999
0.999997
0.999999
0.999998
0.999999
0.999998
0.999996
0.999996
0.999997
0.999999
0.999999
1
1
0.999996
1
0.999989
1.00001
1.00001
1
0.999999
0.999999
1
1
0.999999
0.999998
1
0.999998
0.999999
1
0.999999
1
0.999993
0.999997
0.999991
1
1.00001
1.00001
1
1
0.999997
0.999998
0.999999
0.999998
0.999996
0.999998
0.999997
0.999997
0.999997
0.999997
0.999994
1
0.999993
1
1.00001
1.00001
1
1
0.999998
0.999999
0.999999
0.999999
1
0.999999
0.999999
1
0.999995
0.999998
0.999992
0.999998
0.999994
1
1.00001
1
1
1
1
0.999999
0.999999
0.999997
0.999997
1
1
1
0.999999
0.999998
0.999993
0.999999
0.999993
1
1
1
1
1
1
1
0.999999
1
1
0.999999
0.999998
0.999999
1
1
0.999997
0.999999
0.999995
1
1
1.00001
1.00001
1.00001
1
1
1
1
1
1
1.00001
1.00001
1
1
0.999997
1
0.999995
1
1
1
1
1
1.00001
1
0.999999
1
1
1
0.999997
0.999995
0.999999
0.999997
0.999991
0.999995
0.999992
1
1
1
1
1
1.00001
1.00001
1.00001
1
1.00001
1.00001
1.00001
1.00001
1.00001
1.00001
1.00001
1.00002
0.999991
0.999999
1.00001
1
0.999996
0.999991
0.999991
0.999988
0.999986
0.999985
0.999981
0.999979
0.999975
0.999972
0.999972
0.999972
0.999964
0.999966
0.999988
1
1.00001
1.00001
1.00002
1.00002
1.00003
1.00004
1.00004
1.00005
1.00006
1.00006
1.00007
1.00007
1.00008
1.00008
1.00008
1.00009
0.999982
1
1
0.999974
0.999943
0.999921
0.9999
0.999878
0.99986
0.999842
0.999828
0.999815
0.999802
0.999795
0.999786
0.999779
0.99977
0.999767
0.999965
1.00007
1.00018
1.00024
1.0003
1.00037
1.00043
1.00049
1.00054
1.00058
1.00062
1.00065
1.00067
1.00069
1.00071
1.00072
1.00073
1.00074
0.999753
0.999568
0.999366
0.999131
0.998913
0.998704
0.998509
0.998342
0.998201
0.998088
0.998002
0.997936
0.997889
0.997856
0.997838
0.997829
0.997822
0.997814
0.999992
1.00043
1.00095
1.00167
1.00247
1.00316
1.00368
1.00405
1.00429
1.00442
1.00447
1.00446
1.0044
1.00432
1.00421
1.00409
1.00396
1.00386
0.999945
0.996247
0.990161
0.98452
0.980273
0.977358
0.975527
0.97452
0.974115
0.974128
0.974432
0.974931
0.975556
0.976259
0.977006
0.977763
0.978549
0.979195
1.0214
1.05634
1.0798
1.09471
1.10362
1.10848
1.11069
1.11118
1.11056
1.10922
1.10743
1.10537
1.10317
1.1009
1.09862
1.09638
1.09417
1.09224
0.922802
0.82784
0.774466
0.743959
0.725618
0.714657
0.708441
0.705217
0.70388
0.70374
0.704359
0.705454
0.70684
0.708395
0.710039
0.711701
0.713398
0.714943
1.06291
1.12901
1.16726
1.19166
1.20826
1.21975
1.22781
1.23361
1.2379
1.24113
1.24365
1.24564
1.24725
1.24858
1.24971
1.25063
1.25155
1.25214
-3.58153e-31
-7.67436e-32
-5.84227e-33
-2.05376e-32
1.40455e-34
3.93281e-33
8.42037e-33
1.22542e-32
1.35878e-32
1.24704e-32
1.02277e-32
8.25172e-33
7.04723e-33
6.223e-33
5.36418e-33
4.37807e-33
3.36182e-33
2.43906e-33
1.68432e-33
1.11544e-33
7.13302e-34
4.4309e-34
2.68674e-34
1.59065e-34
9.00359e-35
4.39984e-35
9.89305e-36
-1.71577e-35
-3.75553e-35
-5.02022e-35
-5.49556e-35
-5.32307e-35
-4.72803e-35
-3.93226e-35
-3.10434e-35
-2.34814e-35
-1.71296e-35
-1.2107e-35
-8.31685e-36
-5.56446e-36
-3.63044e-36
-2.3108e-36
-1.43437e-36
-8.66884e-37
-5.08321e-37
-2.87226e-37
-1.54456e-37
-7.72616e-38
-3.4321e-38
-1.19593e-38
-1.48543e-39
2.53855e-39
3.40155e-39
2.97105e-39
2.20702e-39
1.52714e-39
1.05265e-39
7.63986e-40
5.93634e-40
4.77192e-40
3.75611e-40
2.76773e-40
1.85137e-40
1.09275e-40
5.3982e-41
1.74153e-41
-1.12574e-41
-5.74132e-41
-1.47688e-40
-1.19514e-40
1.38859e-39
1.04772e-38
4.56902e-38
1.36918e-37
2.16544e-37
-5.20727e-37
-6.05897e-36
-3.00892e-35
-1.04787e-34
-2.54369e-34
-2.38071e-34
1.63785e-33
1.24852e-32
5.44857e-32
1.77043e-31
4.22869e-31
5.06801e-31
-1.65803e-30
-1.50416e-29
-6.94595e-29
-2.44247e-28
-6.94235e-28
-1.52187e-27
-1.81538e-27
4.55658e-27
4.37107e-26
2.06544e-25
7.68481e-25
2.46863e-24
7.04576e-24
1.78984e-23
3.94325e-23
6.88282e-23
8.77108e-23
4.70677e-23
-1.45151e-22
-6.26615e-22
-1.56608e-21
-3.12932e-21
-5.43069e-21
-8.48225e-21
-1.21564e-20
-1.6176e-20
-2.01396e-20
-2.35785e-20
-2.60359e-20
-2.71477e-20
-2.67096e-20
-2.47136e-20
-2.13484e-20
-1.69629e-20
-1.20041e-20
-6.94523e-21
-2.21771e-21
1.84078e-21
5.01506e-21
7.2184e-21
8.47929e-21
8.91411e-21
8.69188e-21
8.00222e-21
7.02841e-21
5.92826e-21
4.8239e-21
3.79905e-21
2.90224e-21
2.15446e-21
1.55654e-21
1.09579e-21
7.52519e-22
5.0476e-22
3.30879e-22
2.11965e-22
1.32773e-22
8.1355e-23
4.88306e-23
2.86796e-23
1.64882e-23
9.2829e-24
5.11706e-24
2.75956e-24
1.45619e-24
7.53616e-25
3.81434e-25
1.88972e-25
9.16418e-26
4.34162e-26
2.01268e-26
9.11533e-27
4.03276e-27
1.74447e-27
7.33998e-28
3.00913e-28
1.2032e-28
4.59801e-29
1.67352e-29
5.86759e-30
1.97394e-30
6.29207e-31
1.85509e-31
4.79131e-32
9.10614e-33
-4.87272e-35
-1.30252e-33
-9.29616e-34
-4.78975e-34
-2.04962e-34
-7.07054e-35
-1.73889e-35
-2.23988e-37
3.14369e-30
-5.71193e-30
1.76287e-31
-1.59747e-31
-9.8212e-31
-2.25001e-30
-3.39848e-30
-3.96236e-30
-3.84586e-30
-3.25278e-30
-2.52344e-30
-1.94095e-30
-1.57667e-30
-1.32985e-30
-1.10809e-30
-8.85278e-31
-6.72159e-31
-4.85805e-31
-3.36015e-31
-2.23762e-31
-1.44301e-31
-9.05913e-32
-5.56257e-32
-3.34707e-32
-1.94803e-32
-1.02055e-32
-3.34725e-33
2.24136e-33
6.74695e-33
9.89733e-33
1.15019e-32
1.16879e-32
1.08241e-32
9.34992e-33
7.64585e-33
5.9791e-33
4.50311e-33
3.28269e-33
2.3244e-33
1.60247e-33
1.07727e-33
7.06693e-34
4.52369e-34
2.82242e-34
1.71152e-34
1.00288e-34
5.61651e-35
2.94681e-35
1.39302e-35
5.39491e-36
1.11336e-36
-7.18765e-37
-1.25491e-36
-1.19512e-36
-9.30805e-37
-6.5471e-37
-4.41268e-37
-3.01632e-37
-2.18875e-37
-1.69277e-37
-1.33853e-37
-1.02522e-37
-7.29156e-38
-4.66268e-38
-2.5765e-38
-1.1279e-38
-2.83893e-39
8.24004e-40
3.2811e-39
1.93196e-38
1.03448e-37
3.89591e-37
9.19146e-37
2.13717e-38
-1.3178e-35
-8.21938e-35
-3.25009e-34
-8.80596e-34
-1.06048e-33
5.00695e-33
4.37131e-32
2.0011e-31
6.62659e-31
1.55413e-30
1.48392e-30
-8.82208e-30
-6.7196e-29
-2.90616e-28
-9.50917e-28
-2.40562e-27
-4.02584e-27
8.87962e-28
4.24745e-26
2.21205e-25
8.03532e-25
2.32025e-24
5.26504e-24
7.67812e-24
-4.9677e-24
-9.23146e-23
-4.43551e-22
-1.53804e-21
-4.29196e-21
-1.01018e-20
-2.06341e-20
-3.72722e-20
-6.02841e-20
-8.79432e-20
-1.15942e-19
-1.37422e-19
-1.43789e-19
-1.26241e-19
-7.76994e-20
5.34421e-21
1.21537e-19
2.64293e-19
4.22472e-19
5.82001e-19
7.2808e-19
8.4744e-19
9.30173e-19
9.70947e-19
9.69326e-19
9.29281e-19
8.58093e-19
7.64957e-19
6.59526e-19
5.5071e-19
4.45848e-19
3.50292e-19
2.67314e-19
1.98279e-19
1.43047e-19
1.00442e-19
6.86969e-20
4.58055e-20
2.97857e-20
1.8911e-20
1.17377e-20
7.13308e-21
4.25648e-21
2.50254e-21
1.45382e-21
8.38333e-22
4.82061e-22
2.76338e-22
1.58861e-22
9.17106e-23
5.31542e-23
3.08483e-23
1.78723e-23
1.02903e-23
5.8761e-24
3.31242e-24
1.83999e-24
1.00007e-24
5.3242e-25
2.77909e-25
1.42131e-25
7.10909e-26
3.47231e-26
1.65405e-26
7.70953e-27
3.52023e-27
1.56622e-27
6.77941e-28
2.87179e-28
1.19264e-28
4.85754e-29
1.94003e-29
7.59285e-30
2.90781e-30
1.08659e-30
3.94087e-31
1.3743e-31
4.52496e-32
1.36295e-32
3.47919e-33
6.46154e-34
2.00292e-35
1.60157e-28
4.47699e-30
4.99395e-30
1.03851e-28
2.91671e-28
4.77498e-28
5.87792e-28
6.00335e-28
5.34112e-28
4.26344e-28
3.17116e-28
2.34301e-28
1.82108e-28
1.47587e-28
1.19526e-28
9.39036e-29
7.07525e-29
5.1077e-29
3.54481e-29
2.37611e-29
1.54575e-29
9.80365e-30
6.08885e-30
3.71535e-30
2.2144e-30
1.23121e-30
5.15096e-31
-7.64565e-32
-5.82171e-31
-9.74905e-31
-1.21932e-30
-1.30922e-30
-1.26981e-30
-1.14261e-30
-9.69814e-31
-7.85143e-31
-6.11027e-31
-4.59644e-31
-3.35529e-31
-2.38324e-31
-1.65013e-31
-1.1149e-31
-7.35286e-32
-4.73055e-32
-2.96283e-32
-1.79826e-32
-1.04824e-32
-5.77223e-33
-2.91046e-33
-1.25424e-33
-3.65101e-34
5.63623e-35
2.11618e-34
2.31012e-34
1.93416e-34
1.42006e-34
9.6873e-35
6.44548e-35
4.40573e-35
3.21061e-35
2.47609e-35
1.92876e-35
1.44015e-35
9.896e-36
6.02765e-36
3.05566e-36
1.05459e-36
-7.46136e-38
-4.75238e-37
-3.33104e-38
2.17745e-36
7.59433e-36
9.01963e-36
-5.96591e-35
-4.97466e-34
-2.18995e-33
-6.39905e-33
-9.00699e-33
3.00399e-32
2.91009e-31
1.32031e-30
4.08212e-30
7.66041e-30
-4.06853e-30
-1.10658e-28
-5.75724e-28
-1.99392e-27
-4.82885e-27
-5.37286e-27
2.15867e-26
1.76779e-25
7.59771e-25
2.41568e-24
5.74936e-24
7.80278e-24
-1.3764e-23
-1.55578e-22
-7.48662e-22
-2.75425e-21
-8.54701e-21
-2.28126e-20
-5.07341e-20
-9.35943e-20
-1.4102e-19
-1.61309e-19
-9.46183e-20
1.46202e-19
6.63859e-19
1.55428e-18
2.87828e-18
4.63487e-18
6.74451e-18
9.04856e-18
1.13268e-17
1.33301e-17
1.48214e-17
1.56154e-17
1.56091e-17
1.4797e-17
1.32699e-17
1.11951e-17
8.78692e-18
6.27262e-18
3.86147e-18
1.72063e-18
-3.80745e-20
-1.36135e-18
-2.2492e-18
-2.74337e-18
-2.91151e-18
-2.83373e-18
-2.59031e-18
-2.25283e-18
-1.87901e-18
-1.51079e-18
-1.17506e-18
-8.86367e-19
-6.49747e-19
-4.63566e-19
-3.22304e-19
-2.1868e-19
-1.44899e-19
-9.37705e-20
-5.92953e-20
-3.6642e-20
-2.21743e-20
-1.31241e-20
-7.59815e-21
-4.30407e-21
-2.38538e-21
-1.29263e-21
-6.84538e-22
-3.55113e-22
-1.80056e-22
-8.91836e-23
-4.3206e-23
-2.04233e-23
-9.42134e-24
-4.23777e-24
-1.85443e-24
-7.91248e-25
-3.27512e-25
-1.31156e-25
-5.07559e-26
-1.88268e-26
-6.6261e-27
-2.18822e-27
-6.60403e-28
-1.70285e-28
-2.90841e-29
3.88316e-30
7.44932e-30
5.1061e-30
2.75599e-30
1.31368e-30
5.70926e-31
2.26644e-31
7.98337e-32
2.34987e-32
4.0044e-33
-7.15156e-29
2.74265e-27
-1.2462e-27
-1.94041e-26
-4.1e-26
-5.55859e-26
-6.01143e-26
-5.61192e-26
-4.69478e-26
-3.59514e-26
-2.59287e-26
-1.85577e-26
-1.38954e-26
-1.08746e-26
-8.58867e-27
-6.65079e-27
-4.98104e-27
-3.59571e-27
-2.50552e-27
-1.69075e-27
-1.10916e-27
-7.10074e-28
-4.4538e-28
-2.74782e-28
-1.66667e-28
-9.68125e-29
-4.72592e-29
-6.50006e-30
2.99477e-29
6.0918e-29
8.32424e-29
9.50835e-29
9.69632e-29
9.11211e-29
8.04161e-29
6.74819e-29
5.43127e-29
4.21841e-29
3.1756e-29
2.32421e-29
1.65737e-29
1.15305e-29
7.83137e-30
5.19203e-30
3.35562e-30
2.10715e-30
1.27673e-30
7.36671e-31
3.95056e-31
1.87414e-31
6.86684e-32
7.05044e-33
-1.97933e-32
-2.72035e-32
-2.51676e-32
-1.96833e-32
-1.39478e-32
-9.34341e-33
-6.18581e-33
-4.24834e-33
-3.11343e-33
-2.39292e-33
-1.83554e-33
-1.33629e-33
-8.85524e-34
-5.08531e-34
-2.26936e-34
-4.50011e-35
5.08581e-35
8.97606e-35
1.12285e-34
1.37365e-34
-4.39741e-35
-1.69781e-33
-9.13084e-33
-2.96083e-32
-4.54453e-32
1.46345e-31
1.48698e-30
6.74186e-30
1.96744e-29
2.69304e-29
-9.38712e-29
-8.74424e-28
-3.86831e-27
-1.16749e-26
-2.14182e-26
1.09188e-26
2.95836e-25
1.52549e-24
5.33529e-24
1.37853e-23
2.25034e-23
-9.98842e-24
-2.6004e-22
-1.27837e-21
-4.40187e-21
-1.19279e-20
-2.48936e-20
-3.13724e-20
3.17095e-20
3.56832e-19
1.31801e-18
3.48775e-18
7.55008e-18
1.40999e-17
2.33642e-17
3.4927e-17
4.75626e-17
5.92607e-17
6.74751e-17
6.95626e-17
6.33147e-17
4.74554e-17
2.19846e-17
-1.17168e-17
-5.10394e-17
-9.25319e-17
-1.32441e-16
-1.67273e-16
-1.94238e-16
-2.11587e-16
-2.18725e-16
-2.16152e-16
-2.05236e-16
-1.87915e-16
-1.66366e-16
-1.42719e-16
-1.18835e-16
-9.61769e-17
-7.5755e-17
-5.8138e-17
-4.35179e-17
-3.18035e-17
-2.27168e-17
-1.58755e-17
-1.08623e-17
-7.2848e-18
-4.79374e-18
-3.09833e-18
-1.9704e-18
-1.235e-18
-7.63308e-19
-4.65819e-19
-2.80995e-19
-1.67563e-19
-9.88614e-20
-5.7722e-20
-3.33533e-20
-1.90482e-20
-1.0748e-20
-5.98157e-21
-3.28899e-21
-1.78207e-21
-9.50856e-22
-4.9808e-22
-2.56109e-22
-1.29329e-22
-6.41357e-23
-3.11758e-23
-1.48495e-23
-6.9274e-24
-3.1639e-24
-1.41555e-24
-6.1978e-25
-2.65411e-25
-1.11299e-25
-4.57378e-26
-1.84238e-26
-7.27301e-27
-2.81155e-27
-1.06267e-27
-3.9159e-28
-1.39979e-28
-4.81229e-29
-1.56686e-29
-4.70585e-30
-1.23582e-30
-2.56213e-31
-2.39615e-32
-7.08018e-26
-6.54174e-25
8.03142e-26
1.93767e-24
3.51964e-24
4.24678e-24
4.21457e-24
3.69803e-24
2.96371e-24
2.2059e-24
1.55801e-24
1.08939e-24
7.91406e-25
6.00877e-25
4.63901e-25
3.54466e-25
2.6401e-25
1.90599e-25
1.33323e-25
9.05272e-26
5.98364e-26
3.8617e-26
2.44152e-26
1.51817e-26
9.31002e-27
5.56409e-27
2.99726e-27
9.3921e-28
-9.502e-28
-2.6831e-27
-4.0884e-27
-5.00647e-27
-5.39007e-27
-5.30367e-27
-4.87511e-27
-4.24552e-27
-3.53678e-27
-2.83781e-27
-2.20383e-27
-1.66231e-27
-1.22084e-27
-8.74451e-28
-6.1146e-28
-4.17527e-28
-2.78229e-28
-1.80535e-28
-1.13493e-28
-6.84331e-29
-3.88473e-29
-2.00355e-29
-8.64215e-30
-2.24627e-30
9.18199e-31
2.12802e-30
2.27223e-30
1.93083e-30
1.44848e-30
1.0032e-30
6.64898e-31
4.40131e-31
3.04318e-31
2.24066e-31
1.71304e-31
1.29293e-31
9.17017e-32
5.83071e-32
3.08852e-32
1.08814e-32
-1.40192e-33
-6.90651e-33
-7.54991e-33
-6.06711e-33
-8.53521e-33
-3.50851e-32
-1.3471e-31
-3.09965e-31
1.27247e-31
5.20407e-30
2.86665e-29
9.52666e-29
1.67108e-28
-2.76632e-28
-3.64093e-27
-1.68527e-26
-4.95179e-26
-7.51383e-26
1.51202e-25
1.62757e-24
6.97357e-24
1.94589e-23
2.93944e-23
-4.57152e-23
-5.34502e-22
-2.32289e-21
-6.79202e-21
-1.24811e-20
2.09588e-21
1.39061e-19
7.47549e-19
2.76406e-18
8.02675e-18
1.88687e-17
3.7056e-17
6.17814e-17
8.74478e-17
1.02183e-16
8.80444e-17
2.34183e-17
-1.12602e-16
-3.34827e-16
-6.46966e-16
-1.03845e-15
-1.48405e-15
-1.94661e-15
-2.38236e-15
-2.74758e-15
-3.00533e-15
-3.13081e-15
-3.1146e-15
-2.96341e-15
-2.69773e-15
-2.34782e-15
-1.9487e-15
-1.53531e-15
-1.1383e-15
-7.81327e-16
-4.79719e-16
-2.40468e-16
-6.32978e-17
5.72024e-17
1.29884e-16
1.65136e-16
1.73352e-16
1.63848e-16
1.44252e-16
1.2031e-16
9.59854e-17
7.37054e-17
5.46947e-17
3.93362e-17
2.74824e-17
1.86802e-17
1.23623e-17
7.9717e-18
5.0078e-18
3.07503e-18
1.84269e-18
1.07764e-18
6.15052e-19
3.42703e-19
1.8629e-19
9.86776e-20
5.10228e-20
2.5707e-20
1.25895e-20
6.00936e-21
2.78464e-21
1.24961e-21
5.41522e-22
2.25563e-22
8.97e-23
3.36686e-23
1.16792e-23
3.58164e-24
8.49382e-25
5.36366e-26
-1.09495e-25
-1.00439e-25
-6.34911e-26
-3.45504e-26
-1.72388e-26
-8.09823e-27
-3.62831e-27
-1.55968e-27
-6.43989e-28
-2.54449e-28
-9.53182e-29
-3.31971e-29
-1.04643e-29
-2.59755e-30
1.21526e-23
7.25007e-23
1.77347e-24
-1.24017e-22
-2.08197e-22
-2.33798e-22
-2.1937e-22
-1.84673e-22
-1.43852e-22
-1.05181e-22
-7.33845e-23
-5.05377e-23
-3.58827e-23
-2.65611e-23
-2.00917e-23
-1.51596e-23
-1.1229e-23
-8.10496e-24
-5.68838e-24
-3.88373e-24
-2.58393e-24
-1.67886e-24
-1.06789e-24
-6.67224e-25
-4.1119e-25
-2.49373e-25
-1.42583e-25
-6.0919e-26
1.41456e-26
8.73949e-26
1.53086e-25
2.02861e-25
2.31652e-25
2.39342e-25
2.29585e-25
2.07771e-25
1.7933e-25
1.48752e-25
1.19231e-25
9.27156e-26
7.01422e-26
5.1728e-26
3.7235e-26
2.61786e-26
1.7975e-26
1.20384e-26
7.83731e-27
4.92363e-27
2.94338e-27
1.63167e-27
7.95313e-28
2.92632e-28
1.75811e-29
-1.09882e-28
-1.48962e-28
-1.41316e-28
-1.14111e-28
-8.32964e-29
-5.68275e-29
-3.74477e-29
-2.48522e-29
-1.72964e-29
-1.27637e-29
-9.68708e-30
-7.18885e-30
-4.9575e-30
-2.99284e-30
-1.39655e-30
-2.59866e-31
3.92253e-31
6.30108e-31
5.94066e-31
3.85267e-31
-1.08428e-31
-1.26008e-30
-2.2205e-30
7.7181e-30
7.59246e-29
3.13711e-28
6.81187e-28
-5.36703e-28
-1.21107e-26
-5.9169e-26
-1.65417e-25
-1.44922e-25
1.28598e-24
8.75506e-24
3.1911e-23
6.92747e-23
5.95941e-24
-7.48318e-22
-4.09242e-21
-1.39625e-20
-3.2134e-20
-3.00819e-20
1.56628e-19
1.12057e-18
4.47723e-18
1.35077e-17
3.17919e-17
5.17709e-17
4.19763e-17
-6.52419e-17
-3.761e-16
-1.02077e-15
-2.12136e-15
-3.74901e-15
-5.88265e-15
-8.38306e-15
-1.09929e-14
-1.3366e-14
-1.51218e-14
-1.59121e-14
-1.54866e-14
-1.37409e-14
-1.07394e-14
-6.70735e-15
-1.99668e-15
2.96993e-15
7.76292e-15
1.19981e-14
1.53838e-14
1.7745e-14
1.90291e-14
1.92926e-14
1.8676e-14
1.73724e-14
1.55961e-14
1.35577e-14
1.14396e-14
9.38744e-15
7.50426e-15
5.8518e-15
4.4567e-15
3.31862e-15
2.41837e-15
1.7259e-15
1.20725e-15
8.28286e-16
5.57671e-16
3.68848e-16
2.39863e-16
1.53357e-16
9.64385e-17
5.96443e-17
3.6327e-17
2.17777e-17
1.28503e-17
7.46354e-18
4.26351e-18
2.39577e-18
1.3224e-18
7.18629e-19
3.83869e-19
2.01378e-19
1.03704e-19
5.24076e-20
2.59756e-20
1.26229e-20
6.01143e-21
2.80458e-21
1.28138e-21
5.73132e-22
2.50936e-22
1.07494e-22
4.50314e-23
1.8448e-23
7.38969e-24
2.89295e-24
1.10575e-24
4.11893e-25
1.49074e-25
5.21567e-26
1.74892e-26
5.53655e-27
1.60791e-27
4.02607e-28
7.17839e-29
-7.45324e-31
-8.02993e-30
-1.10318e-21
-4.9388e-21
-5.69858e-22
5.60605e-21
9.11278e-21
9.81791e-21
8.90069e-21
7.30319e-21
5.59387e-21
4.0536e-21
2.81508e-21
1.92411e-21
1.34524e-21
9.76172e-22
7.25567e-22
5.41145e-22
3.9867e-22
2.87602e-22
2.02425e-22
1.38875e-22
9.29229e-23
6.07085e-23
3.87837e-23
2.42831e-23
1.49593e-23
9.09424e-24
5.35436e-24
2.67488e-24
2.88865e-25
-2.14171e-24
-4.52399e-24
-6.55971e-24
-7.98507e-24
-8.68924e-24
-8.71622e-24
-8.20956e-24
-7.34966e-24
-6.30783e-24
-5.22179e-24
-4.18807e-24
-3.26485e-24
-2.4795e-24
-1.83742e-24
-1.32992e-24
-9.40523e-25
-6.49553e-25
-4.37191e-25
-2.85338e-25
-1.78752e-25
-1.05483e-25
-5.65782e-26
-2.53871e-26
-6.85521e-27
2.95396e-27
7.1071e-27
7.91556e-27
7.01833e-27
5.48304e-27
3.92921e-27
2.65446e-27
1.7447e-27
1.16177e-27
8.12218e-28
5.98891e-28
4.50503e-28
3.28477e-28
2.19283e-28
1.22998e-28
4.50912e-29
-8.52005e-30
-3.58015e-29
-4.14483e-29
-3.50429e-29
-2.68084e-29
-2.22909e-29
9.62054e-31
1.89381e-28
9.99435e-28
2.78554e-27
8.38107e-28
-3.57976e-26
-2.10723e-25
-6.6768e-25
-8.25836e-25
4.20095e-24
3.28756e-23
1.22908e-22
2.55941e-22
-7.72197e-23
-3.21765e-21
-1.54247e-20
-4.37007e-20
-6.09018e-20
1.2825e-19
1.19258e-18
4.47908e-18
1.01673e-17
6.43216e-18
-6.66668e-17
-3.95613e-16
-1.34995e-15
-3.42871e-15
-7.09801e-15
-1.25224e-14
-1.92798e-14
-2.6172e-14
-3.12284e-14
-3.19462e-14
-2.57396e-14
-1.0497e-14
1.48866e-14
5.0138e-14
9.34882e-14
1.41842e-13
1.91197e-13
2.37218e-13
2.75858e-13
3.03884e-13
3.19263e-13
3.21413e-13
3.11077e-13
2.90108e-13
2.61101e-13
2.27004e-13
1.90726e-13
1.54843e-13
1.21388e-13
9.17536e-14
6.66931e-14
4.6429e-14
3.07519e-14
1.91598e-14
1.09918e-14
5.5404e-15
2.13443e-15
1.80036e-16
-8.00527e-16
-1.17237e-15
-1.19716e-15
-1.05083e-15
-8.41781e-16
-6.31295e-16
-4.49401e-16
-3.05965e-16
-1.99656e-16
-1.25957e-16
-7.66938e-17
-4.50772e-17
-2.55414e-17
-1.39796e-17
-7.36242e-18
-3.71579e-18
-1.78599e-18
-8.0933e-19
-3.3908e-19
-1.26027e-19
-3.70086e-20
-4.12701e-21
5.36589e-21
6.28508e-21
4.77724e-21
3.07674e-21
1.80135e-21
9.87285e-22
5.14299e-22
2.56929e-22
1.23829e-22
5.78183e-23
2.6235e-23
1.15945e-23
4.9986e-24
2.10396e-24
8.64622e-25
3.46534e-25
1.35105e-25
5.09917e-26
1.8488e-26
6.3583e-27
2.04453e-27
5.68113e-28
6.59569e-20
2.34971e-19
4.24171e-20
-1.89984e-19
-3.09335e-19
-3.26791e-19
-2.90942e-19
-2.35573e-19
-1.79102e-19
-1.2958e-19
-9.01608e-20
-6.15921e-20
-4.27153e-20
-3.05709e-20
-2.24099e-20
-1.65489e-20
-1.21321e-20
-8.74723e-21
-6.17246e-21
-4.25344e-21
-2.86058e-21
-1.87763e-21
-1.20319e-21
-7.53273e-22
-4.6184e-22
-2.7848e-22
-1.6452e-22
-8.86274e-23
-2.57027e-23
3.92869e-23
1.08135e-22
1.7355e-22
2.26272e-22
2.60089e-22
2.73398e-22
2.68427e-22
2.49567e-22
2.21833e-22
1.89805e-22
1.57108e-22
1.26261e-22
9.87813e-23
7.53754e-23
5.61687e-23
4.09055e-23
2.91144e-23
2.02319e-23
1.36838e-23
8.94413e-24
5.57372e-24
3.23072e-24
1.65706e-24
6.55319e-25
6.8976e-26
-2.28867e-25
-3.39882e-25
-3.41931e-25
-2.90596e-25
-2.22077e-25
-1.57183e-25
-1.05538e-25
-6.93e-26
-4.62485e-26
-3.23701e-26
-2.37791e-26
-1.77104e-26
-1.26725e-26
-8.11254e-27
-4.03295e-27
-7.42057e-28
1.39334e-27
2.27697e-27
2.19002e-27
1.59258e-27
8.87968e-28
5.36302e-28
1.92045e-27
8.34435e-27
1.70857e-26
-3.58368e-26
-4.46004e-25
-1.84059e-24
-3.36319e-24
7.75604e-24
8.4332e-23
3.24461e-22
5.43471e-22
-1.39756e-21
-1.37958e-20
-5.18289e-20
-9.21415e-20
1.59267e-19
1.91162e-18
7.98201e-18
1.94495e-17
1.15761e-17
-1.55506e-16
-9.60925e-16
-3.53226e-15
-9.15159e-15
-1.78171e-14
-2.67167e-14
-2.88322e-14
-1.2741e-14
3.59464e-14
1.31603e-13
2.84682e-13
4.97939e-13
7.63875e-13
1.06421e-12
1.37165e-12
1.65369e-12
1.87762e-12
2.01568e-12
2.0494e-12
1.97215e-12
1.78992e-12
1.51989e-12
1.18754e-12
8.22625e-13
4.55432e-13
1.13003e-13
-1.83502e-13
-4.20274e-13
-5.91123e-13
-6.96733e-13
-7.43187e-13
-7.40249e-13
-6.9994e-13
-6.34064e-13
-5.53651e-13
-4.67928e-13
-3.83942e-13
-3.06529e-13
-2.38521e-13
-1.81162e-13
-1.34444e-13
-9.75818e-14
-6.93228e-14
-4.82242e-14
-3.28742e-14
-2.19748e-14
-1.44045e-14
-9.26181e-15
-5.83654e-15
-3.61327e-15
-2.19533e-15
-1.30886e-15
-7.65589e-16
-4.39284e-16
-2.47243e-16
-1.36455e-16
-7.38255e-17
-3.91456e-17
-2.03349e-17
-1.03444e-17
-5.15122e-18
-2.5098e-18
-1.19585e-18
-5.56883e-19
-2.53286e-19
-1.12429e-19
-4.86581e-20
-2.05091e-20
-8.40535e-21
-3.34217e-21
-1.28551e-21
-4.76156e-22
-1.68612e-22
-5.63537e-23
-1.7338e-23
-4.63226e-24
-8.8199e-25
3.85101e-26
1.6578e-25
1.20812e-25
6.64628e-26
3.17671e-26
1.37565e-26
5.25449e-27
-2.89112e-18
-8.40646e-18
-1.94136e-18
5.01747e-18
8.41387e-18
8.85972e-18
7.8437e-18
6.32915e-18
4.81331e-18
3.49841e-18
2.45254e-18
1.68494e-18
1.16724e-18
8.29174e-19
6.02154e-19
4.414e-19
3.22401e-19
2.32438e-19
1.64472e-19
1.13846e-19
7.69537e-20
5.07364e-20
3.25931e-20
2.03781e-20
1.23968e-20
7.3514e-21
4.25837e-21
2.3307e-21
8.98351e-22
-5.32959e-22
-2.14546e-21
-3.8358e-21
-5.36972e-21
-6.53272e-21
-7.20851e-21
-7.38843e-21
-7.14277e-21
-6.58233e-21
-5.82614e-21
-4.98051e-21
-4.12884e-21
-3.32922e-21
-2.61678e-21
-2.00809e-21
-1.50603e-21
-1.10438e-21
-7.91636e-22
-5.53764e-22
-3.76291e-22
-2.46035e-22
-1.5213e-22
-8.61449e-23
-4.16022e-23
-1.3346e-23
2.90645e-24
1.07643e-23
1.31932e-23
1.2497e-23
1.03329e-23
7.78257e-24
5.46471e-24
3.65549e-24
2.39782e-24
1.59904e-24
1.11587e-24
8.14504e-25
6.00368e-25
4.20409e-25
2.5275e-25
9.85942e-26
-2.36072e-26
-9.53362e-26
-1.14535e-25
-9.65316e-26
-6.2673e-26
-2.85404e-26
6.82567e-27
5.65045e-26
3.72492e-26
-6.81949e-25
-3.95325e-24
-9.25232e-24
1.53032e-23
2.27975e-22
9.71137e-22
1.70501e-21
-5.14627e-21
-5.05968e-20
-1.90956e-19
-3.15184e-19
8.028e-19
7.83514e-18
2.96603e-17
5.91127e-17
-2.6617e-17
-7.26981e-16
-3.20213e-15
-8.3335e-15
-1.04127e-14
1.55044e-14
1.13986e-13
3.45115e-13
7.68872e-13
1.42253e-12
2.29756e-12
3.32418e-12
4.36918e-12
5.24985e-12
5.76218e-12
5.71724e-12
4.97773e-12
3.48672e-12
1.28242e-12
-1.50378e-12
-4.66472e-12
-7.94661e-12
-1.10836e-11
-1.3831e-11
-1.5991e-11
-1.74416e-11
-1.81345e-11
-1.80941e-11
-1.74047e-11
-1.6193e-11
-1.46076e-11
-1.2801e-11
-1.09136e-11
-9.06246e-12
-7.33746e-12
-5.79727e-12
-4.47329e-12
-3.37348e-12
-2.4882e-12
-1.79626e-12
-1.27046e-12
-8.80739e-13
-5.99101e-13
-4.00313e-13
-2.63081e-13
-1.70229e-13
-1.08676e-13
-6.86115e-14
-4.28852e-14
-2.65817e-14
-1.63627e-14
-1.00138e-14
-6.09634e-15
-3.69198e-15
-2.22283e-15
-1.32899e-15
-7.87874e-16
-4.62333e-16
-2.68061e-16
-1.53301e-16
-8.63349e-17
-4.78132e-17
-2.60086e-17
-1.38826e-17
-7.2656e-18
-3.72619e-18
-1.87181e-18
-9.20755e-19
-4.43442e-19
-2.09086e-19
-9.65203e-20
-4.36271e-20
-1.9312e-20
-8.37409e-21
-3.5578e-21
-1.48115e-21
-6.0414e-22
-2.41315e-22
-9.42947e-23
-3.5976e-23
-1.3359e-23
-4.80348e-24
-1.65959e-24
-5.44354e-25
-1.66885e-25
-4.46985e-26
9.88492e-17
2.37036e-16
6.43886e-17
-1.05839e-16
-1.87656e-16
-1.99522e-16
-1.77404e-16
-1.43802e-16
-1.10099e-16
-8.08099e-17
-5.73526e-17
-3.98415e-17
-2.77465e-17
-1.96891e-17
-1.42376e-17
-1.03955e-17
-7.58073e-18
-5.472e-18
-3.88604e-18
-2.70393e-18
-1.83828e-18
-1.21827e-18
-7.85062e-19
-4.90318e-19
-2.95699e-19
-1.71567e-19
-9.55683e-20
-5.02901e-20
-2.07113e-20
5.97955e-21
3.69431e-20
7.25205e-20
1.08531e-19
1.39651e-19
1.61854e-19
1.73351e-19
1.74439e-19
1.66824e-19
1.52886e-19
1.35086e-19
1.15597e-19
9.61247e-20
7.78669e-20
6.156e-20
4.75591e-20
3.59329e-20
2.65572e-20
1.91881e-20
1.35173e-20
9.22609e-21
6.02784e-21
3.68936e-21
2.0291e-21
9.03336e-22
1.92034e-22
-2.09536e-22
-3.92931e-22
-4.35179e-22
-3.97016e-22
-3.22553e-22
-2.40777e-22
-1.68284e-22
-1.12271e-22
-7.34276e-23
-4.87165e-23
-3.37345e-23
-2.44143e-23
-1.78093e-23
-1.21164e-23
-6.49897e-24
-1.21287e-24
2.79395e-24
4.78612e-24
4.80341e-24
3.5014e-24
1.82832e-24
6.11297e-25
5.58831e-27
-1.33516e-24
-9.24567e-24
-3.48302e-23
-5.12866e-23
2.65215e-22
2.09755e-21
6.27328e-21
-5.72552e-22
-9.21053e-20
-4.1959e-19
-6.70974e-19
2.515e-18
1.9742e-17
5.39662e-17
-1.68806e-17
-7.67317e-16
-3.22267e-15
-4.76262e-15
2.05497e-14
1.6983e-13
6.19383e-13
1.54635e-12
3.02891e-12
4.92217e-12
6.7698e-12
7.79354e-12
6.98377e-12
3.27468e-12
-4.22622e-12
-1.60116e-11
-3.20061e-11
-5.14983e-11
-7.31919e-11
-9.53638e-11
-1.16101e-10
-1.33565e-10
-1.46235e-10
-1.53096e-10
-1.53736e-10
-1.48355e-10
-1.37682e-10
-1.22868e-10
-1.05295e-10
-8.63999e-11
-6.75201e-11
-4.97757e-11
-3.39972e-11
-2.07013e-11
-1.01084e-11
-2.18865e-12
3.31102e-12
6.7347e-12
8.49733e-12
9.02006e-12
8.69043e-12
7.83726e-12
6.71592e-12
5.524e-12
4.38454e-12
3.37124e-12
2.51774e-12
1.82977e-12
1.29576e-12
8.95055e-13
6.03577e-13
3.97578e-13
2.55881e-13
1.60937e-13
9.89364e-14
5.94476e-14
3.4907e-14
2.00251e-14
1.122e-14
6.13678e-15
3.27443e-15
1.70307e-15
8.62526e-16
4.24771e-16
2.03051e-16
9.39837e-17
4.19765e-17
1.79995e-17
7.35122e-18
2.82125e-18
9.91454e-19
3.0044e-19
6.38172e-20
-4.27636e-21
-1.63682e-20
-1.33538e-20
-8.35066e-21
-4.61224e-21
-2.35968e-21
-1.14298e-21
-5.30331e-22
-2.37271e-22
-1.02724e-22
-4.30915e-23
-1.75055e-23
-6.87036e-24
-2.59984e-24
-9.17459e-25
-2.74051e-15
-5.43541e-15
-1.65931e-15
1.80698e-15
3.48715e-15
3.78486e-15
3.40753e-15
2.79332e-15
2.16492e-15
1.61192e-15
1.16297e-15
8.20729e-16
5.77915e-16
4.12181e-16
2.98414e-16
2.17937e-16
1.59142e-16
1.15258e-16
8.22889e-17
5.76465e-17
3.94835e-17
2.63522e-17
1.70722e-17
1.06781e-17
6.39989e-18
3.63509e-18
1.92578e-18
9.23602e-19
3.369e-19
-1.06259e-19
-6.00752e-19
-1.21469e-18
-1.90536e-18
-2.57563e-18
-3.12882e-18
-3.50075e-18
-3.66837e-18
-3.64341e-18
-3.45999e-18
-3.1624e-18
-2.79557e-18
-2.39906e-18
-2.00417e-18
-1.63328e-18
-1.30044e-18
-1.01266e-18
-7.71686e-19
-5.75498e-19
-4.19514e-19
-2.97765e-19
-2.0412e-19
-1.3316e-19
-8.05218e-20
-4.2759e-20
-1.70297e-20
-8.22792e-22
8.16572e-21
1.20234e-20
1.25494e-20
1.11862e-20
8.99584e-21
6.68487e-21
4.66126e-21
3.10011e-21
2.01459e-21
1.32197e-21
9.03403e-22
6.47154e-22
4.67331e-22
3.01602e-22
1.25922e-22
-3.93573e-23
-1.5498e-22
-1.98219e-22
-1.70817e-22
-9.95339e-23
-2.834e-23
1.47688e-23
2.60184e-23
5.0123e-23
6.49573e-23
3.3064e-22
2.35693e-21
7.53853e-21
-9.17684e-21
-1.94731e-19
-7.96923e-19
-3.68858e-19
1.249e-17
6.82666e-17
1.25138e-16
-5.08472e-16
-4.52183e-15
-1.46346e-14
-5.86719e-15
1.80158e-13
9.97974e-13
2.7346e-12
4.61342e-12
4.61185e-12
-7.13113e-13
-1.57985e-11
-4.51607e-11
-9.21566e-11
-1.57733e-10
-2.39613e-10
-3.32023e-10
-4.26168e-10
-5.11364e-10
-5.76623e-10
-6.12346e-10
-6.11811e-10
-5.72193e-10
-4.94932e-10
-3.85466e-10
-2.52389e-10
-1.06251e-10
4.17667e-11
1.80976e-10
3.02722e-10
4.00678e-10
4.7127e-10
5.13628e-10
5.29245e-10
5.21435e-10
4.94693e-10
4.54033e-10
4.04391e-10
3.50553e-10
2.96278e-10
2.44514e-10
1.97292e-10
1.55803e-10
1.20526e-10
9.13978e-11
6.79867e-11
4.96399e-11
3.55957e-11
2.50803e-11
1.73704e-11
1.18298e-11
7.92443e-12
5.22275e-12
3.38728e-12
2.16202e-12
1.3581e-12
8.39587e-13
5.10763e-13
3.05713e-13
1.79989e-13
1.04208e-13
5.93115e-14
3.31738e-14
1.82267e-14
9.83325e-15
5.20696e-15
2.70514e-15
1.37826e-15
6.88391e-16
3.3692e-16
1.61523e-16
7.5822e-17
3.48369e-17
1.56601e-17
6.8845e-18
2.95834e-18
1.24181e-18
5.08798e-19
2.03247e-19
7.90242e-20
2.98281e-20
1.08855e-20
3.81531e-21
1.26965e-21
3.92615e-22
1.07671e-22
2.28473e-23
1.24803e-24
-2.40701e-24
-1.92176e-24
6.31556e-14
1.03515e-13
3.4518e-14
-2.50061e-14
-5.45483e-14
-6.10462e-14
-5.60458e-14
-4.67341e-14
-3.68445e-14
-2.79417e-14
-2.05682e-14
-1.48066e-14
-1.05955e-14
-7.6393e-15
-5.56825e-15
-4.08672e-15
-2.99943e-15
-2.18607e-15
-1.57309e-15
-1.11224e-15
-7.69544e-16
-5.18894e-16
-3.3931e-16
-2.13641e-16
-1.28139e-16
-7.18862e-17
-3.64459e-17
-1.54284e-17
-3.7674e-18
3.41138e-18
1.02323e-17
1.89798e-17
2.98604e-17
4.1656e-17
5.26535e-17
6.137e-17
6.69107e-17
6.90198e-17
6.79533e-17
6.42909e-17
5.87558e-17
5.2077e-17
4.49006e-17
3.77468e-17
3.09956e-17
2.48916e-17
1.95654e-17
1.50599e-17
1.13484e-17