/*--------------------------------*- C++ -*----------------------------------*\
| =========                 |                                                 |
| \\      /  F ield         | OpenFOAM: The Open Source CFD Toolbox           |
|  \\    /   O peration     | Version:  4.1                                   |
|   \\  /    A nd           | Web:      www.OpenFOAM.org                      |
|    \\/     M anipulation  |                                                 |
\*---------------------------------------------------------------------------*/
FoamFile
{
    version     2.0;
    format      ascii;
    class       volScalarField;
    location    "0.085";
    object      T;
}
// * * * * * * * * * * * * * * * * * * * * * * * * * * * * * * * * * * * * * //

dimensions      [0 0 0 1 0 0 0];

internalField   nonuniform List<scalar> 
12225
(
0.625082
0.501659
0.482429
0.479445
0.478893
0.478746
0.478693
0.478669
0.478656
0.478648
0.47864
0.478629
0.478603
0.478538
0.478377
0.477978
0.476975
0.474465
0.617081
0.498208
0.480748
0.478495
0.478335
0.47841
0.478486
0.478541
0.478578
0.478602
0.478616
0.478619
0.478603
0.478546
0.478395
0.478017
0.47709
0.474834
0.621282
0.500687
0.482151
0.479347
0.478884
0.478769
0.478724
0.4787
0.478685
0.478674
0.478665
0.478652
0.478626
0.478565
0.478419
0.478071
0.477266
0.475481
0.621277
0.500416
0.481761
0.479003
0.478628
0.478587
0.478593
0.478605
0.478616
0.478624
0.478628
0.478625
0.478607
0.478557
0.478429
0.478129
0.477464
0.476097
0.621238
0.500487
0.481847
0.479071
0.47869
0.478643
0.47864
0.478643
0.478646
0.478647
0.478647
0.478641
0.478623
0.478576
0.478464
0.478212
0.477683
0.476673
0.621177
0.50051
0.481888
0.479083
0.478687
0.478637
0.478634
0.478638
0.478641
0.478644
0.478644
0.478639
0.478624
0.478585
0.478492
0.478291
0.477887
0.477161
0.621178
0.500547
0.481941
0.479115
0.478704
0.47865
0.478645
0.478646
0.478649
0.478651
0.47865
0.478646
0.478633
0.4786
0.478526
0.47837
0.478073
0.477565
0.621179
0.500558
0.481969
0.479137
0.478717
0.478659
0.478652
0.478652
0.478654
0.478655
0.478655
0.478651
0.47864
0.478612
0.478553
0.478432
0.478207
0.477836
0.621177
0.500563
0.481988
0.479156
0.478731
0.478669
0.47866
0.478659
0.47866
0.47866
0.478659
0.478656
0.478647
0.478624
0.478576
0.478481
0.478311
0.478036
0.621174
0.500565
0.482002
0.479173
0.478745
0.47868
0.478669
0.478667
0.478667
0.478667
0.478665
0.478662
0.478654
0.478636
0.478599
0.478529
0.478405
0.47821
0.621171
0.500564
0.482012
0.479188
0.478759
0.478692
0.47868
0.478676
0.478675
0.478674
0.478672
0.478669
0.478663
0.47865
0.478622
0.478572
0.478486
0.478354
0.621167
0.500561
0.482017
0.479198
0.478771
0.478704
0.47869
0.478686
0.478684
0.478682
0.47868
0.478677
0.478672
0.478662
0.478644
0.47861
0.478553
0.478469
0.621164
0.500557
0.482019
0.479205
0.47878
0.478714
0.4787
0.478696
0.478692
0.47869
0.478689
0.478685
0.478682
0.478675
0.478662
0.478641
0.478606
0.478556
0.621161
0.500553
0.482019
0.479209
0.478786
0.47872
0.478708
0.478704
0.478701
0.478699
0.478696
0.478694
0.478691
0.478686
0.478678
0.478665
0.478645
0.478617
0.621158
0.500549
0.482017
0.47921
0.478789
0.478725
0.478713
0.47871
0.478708
0.478706
0.478704
0.478702
0.478699
0.478696
0.478691
0.478684
0.478673
0.478659
0.621156
0.500546
0.482015
0.479209
0.47879
0.478728
0.478717
0.478714
0.478712
0.47871
0.478709
0.478708
0.478706
0.478704
0.4787
0.478696
0.47869
0.478684
0.621154
0.500544
0.482013
0.479208
0.47879
0.478728
0.478718
0.478716
0.478714
0.478714
0.478712
0.478711
0.47871
0.478709
0.478707
0.478704
0.478701
0.478698
0.621154
0.500543
0.482012
0.479208
0.47879
0.478728
0.478718
0.478715
0.478714
0.478714
0.478713
0.478713
0.478711
0.478709
0.478707
0.478706
0.478704
0.478704
0.621154
0.500543
0.482012
0.479207
0.478789
0.478728
0.478718
0.478714
0.478712
0.478712
0.47871
0.478709
0.478708
0.478707
0.478706
0.478704
0.478703
0.478703
0.621154
0.500544
0.482012
0.479207
0.478788
0.478725
0.478715
0.478711
0.478709
0.478707
0.478706
0.478705
0.478704
0.478703
0.478702
0.478701
0.4787
0.478701
0.621154
0.500545
0.482014
0.479206
0.478784
0.47872
0.478709
0.478705
0.478703
0.478701
0.478699
0.478698
0.478697
0.478697
0.478696
0.478695
0.478694
0.478695
0.621154
0.500547
0.482015
0.479204
0.47878
0.478714
0.478702
0.478698
0.478696
0.478694
0.478693
0.478692
0.478692
0.478691
0.478691
0.478691
0.478689
0.47869
0.621152
0.500551
0.482014
0.479195
0.478767
0.478701
0.478689
0.478685
0.478684
0.478683
0.478683
0.478682
0.478682
0.478683
0.478682
0.478682
0.478682
0.478683
0.621147
0.500559
0.482014
0.479187
0.478759
0.478694
0.478684
0.478681
0.478681
0.47868
0.47868
0.47868
0.478681
0.478681
0.478681
0.478681
0.478681
0.478682
0.621134
0.500551
0.481983
0.479149
0.478725
0.478665
0.478657
0.478657
0.478658
0.47866
0.478662
0.478664
0.478665
0.478667
0.478669
0.47867
0.478671
0.478673
0.621195
0.500594
0.48198
0.479154
0.478749
0.478696
0.478689
0.478687
0.478686
0.478685
0.478684
0.478682
0.478681
0.47868
0.47868
0.47868
0.478679
0.47868
0.621276
0.500532
0.481808
0.478971
0.478582
0.478548
0.478561
0.47858
0.478597
0.478611
0.478622
0.478631
0.478639
0.478645
0.478651
0.478655
0.478659
0.478661
0.621626
0.501078
0.482445
0.479563
0.479064
0.478923
0.47885
0.478804
0.478771
0.478747
0.47873
0.478716
0.478707
0.4787
0.478695
0.478691
0.47869
0.478684
0.617042
0.497852
0.480426
0.478232
0.478138
0.478261
0.478372
0.478454
0.478512
0.478553
0.478582
0.478604
0.47862
0.478632
0.478642
0.47865
0.478659
0.478657
0.625111
0.502056
0.482622
0.479575
0.479005
0.478839
0.47877
0.478733
0.478711
0.478697
0.478687
0.47868
0.478676
0.478673
0.478671
0.478671
0.478674
0.478662
0.355242
0.35524
0.355216
0.355186
0.355155
0.355119
0.35508
0.355037
0.354988
0.354937
0.354884
0.354829
0.354772
0.354714
0.354654
0.354593
0.354532
0.354472
0.354412
0.354354
0.354298
0.354245
0.354195
0.354149
0.354109
0.354073
0.354044
0.354021
0.354005
0.353998
0.353998
0.354008
0.354027
0.354057
0.354097
0.354148
0.35421
0.354284
0.35437
0.354469
0.35458
0.354704
0.354841
0.354991
0.355155
0.355332
0.355521
0.355724
0.355941
0.35617
0.356412
0.356666
0.356933
0.357212
0.357502
0.357804
0.358116
0.358438
0.35877
0.359112
0.359462
0.359821
0.360188
0.360561
0.360942
0.361328
0.36172
0.362117
0.362519
0.362925
0.363334
0.363746
0.364161
0.364577
0.364995
0.365415
0.365835
0.366255
0.366675
0.367095
0.367514
0.367932
0.368348
0.368763
0.369175
0.369585
0.369993
0.370397
0.370798
0.371196
0.371589
0.371979
0.372365
0.372746
0.373123
0.373495
0.373862
0.374224
0.37458
0.374932
0.375277
0.375617
0.375952
0.376281
0.376603
0.37692
0.377231
0.377536
0.377835
0.378128
0.378415
0.378696
0.378971
0.379239
0.379502
0.379758
0.380008
0.380251
0.380488
0.380718
0.380942
0.381159
0.38137
0.381574
0.381771
0.381961
0.382144
0.38232
0.382489
0.38265
0.382805
0.382952
0.383091
0.383223
0.383347
0.383464
0.383572
0.383673
0.383766
0.38385
0.383927
0.383995
0.384055
0.384106
0.384149
0.384183
0.384209
0.384226
0.384234
0.384233
0.384224
0.384205
0.384178
0.384141
0.384096
0.384041
0.383977
0.383905
0.383823
0.383733
0.383631
0.383521
0.383407
0.383268
0.38312
0.382963
0.382784
0.382597
0.382403
0.382202
0.381992
0.381775
0.38155
0.381318
0.381079
0.380831
0.380588
0.380306
0.380169
0.379307
0.355587
0.355576
0.355566
0.355551
0.355531
0.355506
0.355477
0.355442
0.355401
0.355353
0.355302
0.355246
0.355188
0.355127
0.355065
0.355002
0.354938
0.354874
0.354812
0.35475
0.354692
0.354635
0.354583
0.354534
0.354491
0.354453
0.354421
0.354395
0.354377
0.354367
0.354365
0.354373
0.354389
0.354416
0.354454
0.354502
0.354562
0.354634
0.354717
0.354813
0.354922
0.355043
0.355178
0.355325
0.355486
0.35566
0.355848
0.356048
0.356262
0.356489
0.356728
0.356979
0.357243
0.357519
0.357807
0.358105
0.358414
0.358734
0.359063
0.359402
0.359749
0.360105
0.360468
0.360839
0.361217
0.3616
0.361989
0.362384
0.362782
0.363185
0.363591
0.364001
0.364412
0.364826
0.365242
0.365658
0.366075
0.366493
0.36691
0.367328
0.367744
0.368159
0.368572
0.368984
0.369394
0.369801
0.370205
0.370607
0.371005
0.371399
0.37179
0.372177
0.37256
0.372938
0.373312
0.37368
0.374044
0.374403
0.374756
0.375103
0.375446
0.375782
0.376113
0.376439
0.376758
0.377071
0.377379
0.37768
0.377976
0.378265
0.378549
0.378826
0.379097
0.379362
0.37962
0.379872
0.380118
0.380358
0.380591
0.380817
0.381037
0.38125
0.381456
0.381656
0.381848
0.382034
0.382213
0.382384
0.382549
0.382706
0.382856
0.382998
0.383133
0.38326
0.38338
0.383492
0.383595
0.383691
0.383779
0.383859
0.383931
0.383994
0.384049
0.384096
0.384134
0.384163
0.384183
0.384195
0.384198
0.384192
0.384177
0.384153
0.384121
0.384078
0.384027
0.383967
0.383897
0.383818
0.383729
0.383632
0.383523
0.383406
0.383283
0.383143
0.382997
0.382848
0.382684
0.382511
0.382329
0.382138
0.381939
0.381732
0.381516
0.381293
0.381063
0.380826
0.380594
0.380333
0.380169
0.37956
0.356294
0.35626
0.356238
0.356219
0.356196
0.356166
0.356131
0.35609
0.356043
0.355991
0.355935
0.355875
0.355813
0.355748
0.355682
0.355615
0.355548
0.355481
0.355415
0.355351
0.35529
0.355231
0.355175
0.355124
0.355078
0.355037
0.355002
0.354974
0.354953
0.35494
0.354936
0.35494
0.354954
0.354977
0.355012
0.355057
0.355113
0.355181
0.35526
0.355353
0.355457
0.355575
0.355705
0.355848
0.356005
0.356174
0.356357
0.356553
0.356762
0.356984
0.357218
0.357465
0.357724
0.357995
0.358277
0.358571
0.358875
0.35919
0.359514
0.359848
0.360191
0.360542
0.360901
0.361268
0.361641
0.36202
0.362405
0.362795
0.36319
0.363589
0.363992
0.364397
0.364806
0.365216
0.365629
0.366042
0.366457
0.366872
0.367287
0.367702
0.368116
0.368529
0.368941
0.369351
0.369759
0.370165
0.370569
0.370969
0.371367
0.371761
0.372152
0.372538
0.372921
0.373299
0.373673
0.374042
0.374406
0.374765
0.375119
0.375468
0.375811
0.376148
0.37648
0.376807
0.377127
0.377442
0.37775
0.378053
0.37835
0.37864
0.378925
0.379203
0.379475
0.379741
0.380001
0.380254
0.380501
0.380742
0.380976
0.381203
0.381424
0.381638
0.381845
0.382045
0.382239
0.382425
0.382605
0.382777
0.382942
0.383099
0.38325
0.383392
0.383527
0.383654
0.383774
0.383886
0.383989
0.384085
0.384172
0.384252
0.384323
0.384385
0.384439
0.384485
0.384521
0.384549
0.384569
0.384579
0.38458
0.384573
0.384556
0.38453
0.384495
0.38445
0.384397
0.384334
0.384261
0.384179
0.384087
0.383987
0.383877
0.383757
0.38363
0.38349
0.383344
0.383194
0.383032
0.38286
0.38268
0.382491
0.382293
0.382086
0.381871
0.381649
0.381419
0.381182
0.380947
0.380686
0.380496
0.380024
0.35733
0.357277
0.357246
0.357221
0.357191
0.357154
0.357111
0.357063
0.35701
0.356952
0.356891
0.356826
0.356759
0.356689
0.356619
0.356547
0.356475
0.356404
0.356334
0.356265
0.356199
0.356136
0.356076
0.35602
0.355969
0.355924
0.355885
0.355852
0.355826
0.355808
0.355798
0.355797
0.355805
0.355824
0.355852
0.355891
0.355941
0.356003
0.356077
0.356162
0.35626
0.356371
0.356494
0.356631
0.35678
0.356943
0.357118
0.357306
0.357508
0.357722
0.357949
0.358188
0.358439
0.358703
0.358977
0.359263
0.35956
0.359867
0.360184
0.360511
0.360846
0.36119
0.361542
0.361901
0.362268
0.36264
0.363019
0.363403
0.363791
0.364184
0.364581
0.364982
0.365385
0.36579
0.366198
0.366607
0.367017
0.367428
0.367839
0.368251
0.368662
0.369072
0.369482
0.36989
0.370296
0.3707
0.371103
0.371502
0.371899
0.372293
0.372684
0.373071
0.373454
0.373833
0.374208
0.374578
0.374944
0.375305
0.37566
0.376011
0.376356
0.376696
0.377031
0.37736
0.377683
0.378
0.378312
0.378618
0.378917
0.379211
0.379499
0.37978
0.380056
0.380325
0.380588
0.380844
0.381095
0.381338
0.381576
0.381806
0.38203
0.382247
0.382458
0.382661
0.382857
0.383047
0.383229
0.383404
0.383571
0.383732
0.383884
0.384029
0.384166
0.384295
0.384417
0.38453
0.384636
0.384733
0.384822
0.384902
0.384974
0.385038
0.385092
0.385138
0.385176
0.385204
0.385223
0.385233
0.385235
0.385227
0.385209
0.385183
0.385147
0.385101
0.385046
0.384982
0.384908
0.384825
0.384732
0.38463
0.384518
0.384397
0.384267
0.384126
0.383978
0.383824
0.383659
0.383486
0.383303
0.383111
0.38291
0.382701
0.382484
0.382258
0.382025
0.381783
0.381541
0.381274
0.381066
0.380661
0.358689
0.358625
0.358586
0.358556
0.358521
0.358478
0.358429
0.358374
0.358314
0.358249
0.358181
0.35811
0.358036
0.357961
0.357884
0.357806
0.357728
0.357651
0.357575
0.3575
0.357428
0.357358
0.357293
0.357231
0.357174
0.357122
0.357076
0.357037
0.357005
0.35698
0.356963
0.356955
0.356956
0.356967
0.356988
0.357019
0.357062
0.357115
0.35718
0.357257
0.357347
0.357448
0.357563
0.35769
0.35783
0.357983
0.358148
0.358327
0.358519
0.358723
0.35894
0.359169
0.35941
0.359663
0.359928
0.360204
0.36049
0.360787
0.361095
0.361411
0.361737
0.362071
0.362414
0.362764
0.363121
0.363485
0.363855
0.36423
0.364611
0.364996
0.365385
0.365778
0.366174
0.366573
0.366974
0.367377
0.367781
0.368187
0.368593
0.369
0.369406
0.369812
0.370218
0.370623
0.371027
0.371429
0.371829
0.372227
0.372623
0.373016
0.373406
0.373793
0.374176
0.374556
0.374932
0.375303
0.375671
0.376033
0.376391
0.376744
0.377092
0.377435
0.377772
0.378104
0.37843
0.378751
0.379066
0.379375
0.379679
0.379976
0.380268
0.380553
0.380832
0.381105
0.381372
0.381633
0.381887
0.382135
0.382376
0.38261
0.382838
0.383059
0.383273
0.38348
0.38368
0.383873
0.384059
0.384237
0.384408
0.384571
0.384726
0.384874
0.385014
0.385146
0.38527
0.385385
0.385493
0.385592
0.385682
0.385764
0.385837
0.385902
0.385958
0.386004
0.386042
0.386071
0.38609
0.3861
0.386101
0.386093
0.386075
0.386047
0.386011
0.385964
0.385908
0.385842
0.385767
0.385682
0.385587
0.385483
0.385369
0.385245
0.385113
0.38497
0.384819
0.384661
0.384493
0.384315
0.384129
0.383934
0.383729
0.383517
0.383295
0.383065
0.382828
0.382581
0.382332
0.382059
0.381841
0.381463
0.360384
0.360313
0.36027
0.360234
0.360193
0.360144
0.360088
0.360026
0.359959
0.359888
0.359813
0.359734
0.359653
0.35957
0.359485
0.3594
0.359315
0.35923
0.359146
0.359064
0.358985
0.358908
0.358834
0.358765
0.3587
0.35864
0.358586
0.358539
0.358498
0.358465
0.358439
0.358423
0.358415
0.358416
0.358428
0.358449
0.358482
0.358525
0.35858
0.358646
0.358725
0.358816
0.358919
0.359034
0.359163
0.359304
0.359458
0.359624
0.359803
0.359995
0.3602
0.360417
0.360645
0.360886
0.361138
0.361402
0.361676
0.361961
0.362256
0.36256
0.362874
0.363196
0.363527
0.363866
0.364212
0.364564
0.364923
0.365288
0.365658
0.366033
0.366413
0.366796
0.367183
0.367573
0.367966
0.368361
0.368758
0.369156
0.369556
0.369956
0.370357
0.370758
0.371158
0.371559
0.371958
0.372357
0.372754
0.373149
0.373543
0.373934
0.374323
0.374709
0.375092
0.375472
0.375849
0.376221
0.37659
0.376954
0.377313
0.377668
0.378019
0.378364
0.378704
0.379039
0.379369
0.379693
0.380011
0.380324
0.380631
0.380932
0.381228
0.381517
0.3818
0.382078
0.382348
0.382613
0.382871
0.383123
0.383369
0.383607
0.383839
0.384064
0.384282
0.384493
0.384697
0.384894
0.385083
0.385265
0.385439
0.385606
0.385764
0.385915
0.386058
0.386192
0.386319
0.386437
0.386546
0.386647
0.386739
0.386823
0.386897
0.386963
0.38702
0.387067
0.387105
0.387134
0.387153
0.387163
0.387163
0.387155
0.387135
0.387107
0.387069
0.387021
0.386963
0.386895
0.386818
0.38673
0.386633
0.386526
0.386409
0.386283
0.386147
0.386001
0.385847
0.385684
0.385512
0.385331
0.385141
0.384941
0.384733
0.384516
0.384291
0.384056
0.383814
0.383562
0.383306
0.383027
0.382801
0.382427
0.362423
0.362352
0.362305
0.362265
0.362218
0.362163
0.362101
0.362032
0.361957
0.361878
0.361794
0.361707
0.361618
0.361526
0.361433
0.361339
0.361245
0.361152
0.361059
0.360968
0.360879
0.360793
0.360711
0.360632
0.360558
0.360488
0.360425
0.360367
0.360317
0.360273
0.360237
0.36021
0.360191
0.360181
0.360181
0.360192
0.360212
0.360243
0.360286
0.36034
0.360405
0.360483
0.360573
0.360675
0.36079
0.360917
0.361056
0.361209
0.361374
0.361551
0.361741
0.361943
0.362157
0.362383
0.36262
0.362869
0.363128
0.363399
0.363679
0.363969
0.364268
0.364576
0.364893
0.365218
0.36555
0.36589
0.366235
0.366588
0.366945
0.367308
0.367676
0.368048
0.368424
0.368803
0.369185
0.36957
0.369957
0.370347
0.370738
0.37113
0.371523
0.371917
0.372311
0.372705
0.373099
0.373492
0.373885
0.374276
0.374667
0.375055
0.375442
0.375826
0.376208
0.376587
0.376963
0.377335
0.377704
0.378069
0.37843
0.378787
0.379139
0.379486
0.379829
0.380166
0.380498
0.380825
0.381147
0.381463
0.381774
0.382079
0.382378
0.382671
0.382958
0.383239
0.383514
0.383783
0.384046
0.384302
0.384551
0.384794
0.38503
0.385259
0.385481
0.385696
0.385904
0.386104
0.386297
0.386483
0.38666
0.38683
0.386992
0.387146
0.387291
0.387428
0.387557
0.387677
0.387789
0.387892
0.387986
0.38807
0.388146
0.388213
0.38827
0.388318
0.388356
0.388385
0.388404
0.388413
0.388413
0.388403
0.388383
0.388353
0.388313
0.388263
0.388203
0.388133
0.388053
0.387963
0.387863
0.387752
0.387632
0.387502
0.387363
0.387214
0.387055
0.386888
0.386712
0.386526
0.386331
0.386127
0.385915
0.385693
0.385462
0.385223
0.384975
0.384717
0.384455
0.38417
0.383936
0.383557
0.36483
0.364759
0.364708
0.364663
0.36461
0.364549
0.364479
0.364402
0.364319
0.364232
0.364139
0.364043
0.363944
0.363843
0.36374
0.363636
0.363532
0.363428
0.363326
0.363224
0.363125
0.363028
0.362935
0.362845
0.362759
0.362679
0.362604
0.362535
0.362473
0.362417
0.362369
0.362329
0.362298
0.362275
0.362262
0.362258
0.362265
0.362282
0.362311
0.36235
0.362401
0.362463
0.362538
0.362624
0.362723
0.362834
0.362958
0.363094
0.363242
0.363403
0.363576
0.363761
0.363958
0.364167
0.364387
0.364619
0.364861
0.365114
0.365378
0.365651
0.365933
0.366225
0.366525
0.366834
0.36715
0.367474
0.367804
0.368141
0.368484
0.368832
0.369186
0.369544
0.369906
0.370272
0.370642
0.371015
0.371391
0.371769
0.372149
0.372531
0.372914
0.373299
0.373684
0.37407
0.374457
0.374844
0.37523
0.375616
0.376001
0.376385
0.376768
0.377149
0.377528
0.377905
0.378279
0.37865
0.379019
0.379383
0.379744
0.380102
0.380454
0.380803
0.381147
0.381486
0.38182
0.382149
0.382473
0.382792
0.383106
0.383413
0.383716
0.384012
0.384303
0.384588
0.384866
0.385139
0.385405
0.385665
0.385918
0.386165
0.386404
0.386637
0.386863
0.387082
0.387293
0.387497
0.387693
0.387882
0.388063
0.388236
0.388401
0.388557
0.388705
0.388845
0.388976
0.389099
0.389212
0.389316
0.389412
0.389498
0.389575
0.389642
0.3897
0.389748
0.389786
0.389815
0.389833
0.389842
0.389841
0.389829
0.389808
0.389776
0.389734
0.389682
0.389619
0.389546
0.389463
0.38937
0.389266
0.389152
0.389028
0.388895
0.388751
0.388597
0.388435
0.388263
0.388081
0.387891
0.387691
0.387482
0.387264
0.387038
0.386802
0.386557
0.386303
0.386039
0.385771
0.385479
0.385238
0.384849
0.367621
0.36755
0.367496
0.367444
0.367385
0.367316
0.367238
0.367153
0.367061
0.366964
0.366862
0.366756
0.366646
0.366534
0.36642
0.366305
0.36619
0.366074
0.365959
0.365846
0.365734
0.365625
0.365519
0.365417
0.365319
0.365226
0.365137
0.365055
0.364979
0.36491
0.364848
0.364793
0.364747
0.36471
0.364682
0.364663
0.364654
0.364656
0.364667
0.36469
0.364724
0.36477
0.364827
0.364896
0.364977
0.36507
0.365175
0.365293
0.365423
0.365565
0.365719
0.365885
0.366062
0.366252
0.366453
0.366665
0.366888
0.367122
0.367366
0.36762
0.367883
0.368156
0.368438
0.368727
0.369025
0.369331
0.369643
0.369962
0.370288
0.370619
0.370956
0.371298
0.371644
0.371995
0.372349
0.372708
0.373069
0.373433
0.3738
0.37417
0.374541
0.374914
0.375289
0.375665
0.376042
0.376419
0.376797
0.377175
0.377553
0.377931
0.378308
0.378684
0.379058
0.379431
0.379802
0.38017
0.380536
0.380899
0.381259
0.381615
0.381967
0.382315
0.382659
0.382999
0.383334
0.383664
0.383989
0.384309
0.384624
0.384934
0.385239
0.385537
0.385831
0.386118
0.386399
0.386675
0.386944
0.387207
0.387463
0.387713
0.387956
0.388192
0.388421
0.388642
0.388857
0.389064
0.389263
0.389455
0.389638
0.389814
0.389981
0.39014
0.390291
0.390432
0.390565
0.390689
0.390804
0.39091
0.391006
0.391093
0.391171
0.391239
0.391297
0.391345
0.391383
0.391411
0.391429
0.391436
0.391433
0.391421
0.391397
0.391363
0.391319
0.391264
0.391198
0.391122
0.391036
0.390939
0.390832
0.390714
0.390586
0.390448
0.3903
0.390141
0.389974
0.389797
0.38961
0.389414
0.389209
0.388995
0.388772
0.388539
0.388298
0.388047
0.387788
0.387517
0.387243
0.386944
0.386695
0.386296
0.370815
0.370743
0.370684
0.370626
0.370559
0.370482
0.370395
0.370301
0.370199
0.370091
0.369978
0.36986
0.369739
0.369615
0.369489
0.369361
0.369232
0.369103
0.368975
0.368848
0.368723
0.3686
0.36848
0.368363
0.36825
0.368142
0.368039
0.367941
0.36785
0.367765
0.367687
0.367617
0.367554
0.3675
0.367455
0.367419
0.367393
0.367377
0.367371
0.367375
0.367391
0.367417
0.367455
0.367505
0.367566
0.367639
0.367724
0.367821
0.36793
0.368051
0.368184
0.368328
0.368485
0.368653
0.368832
0.369023
0.369224
0.369436
0.369658
0.369891
0.370133
0.370384
0.370644
0.370913
0.37119
0.371474
0.371766
0.372065
0.37237
0.372682
0.372999
0.373322
0.37365
0.373982
0.374319
0.37466
0.375005
0.375353
0.375704
0.376058
0.376414
0.376773
0.377134
0.377497
0.377862
0.378228
0.378595
0.378963
0.379331
0.3797
0.380068
0.380437
0.380804
0.381171
0.381536
0.381899
0.38226
0.382619
0.382975
0.383328
0.383678
0.384024
0.384366
0.384704
0.385038
0.385368
0.385692
0.386013
0.386328
0.386638
0.386943
0.387243
0.387537
0.387826
0.388109
0.388386
0.388656
0.388921
0.389179
0.389431
0.389676
0.389914
0.390145
0.390369
0.390586
0.390795
0.390997
0.39119
0.391376
0.391553
0.391722
0.391883
0.392035
0.392178
0.392312
0.392438
0.392554
0.39266
0.392758
0.392845
0.392923
0.39299
0.393048
0.393096
0.393133
0.39316
0.393177
0.393183
0.393178
0.393163
0.393138
0.393101
0.393054
0.392996
0.392928
0.392848
0.392758
0.392657
0.392546
0.392424
0.392291
0.392149
0.391996
0.391833
0.39166
0.391477
0.391285
0.391084
0.390873
0.390653
0.390424
0.390186
0.389939
0.389682
0.389417
0.38914
0.388859
0.388553
0.388297
0.387888
0.374431
0.374359
0.374294
0.374228
0.374152
0.374066
0.373969
0.373864
0.373751
0.373631
0.373506
0.373375
0.37324
0.373102
0.372962
0.37282
0.372676
0.372532
0.372389
0.372246
0.372105
0.371966
0.37183
0.371697
0.371567
0.371443
0.371323
0.371208
0.371099
0.370997
0.370901
0.370813
0.370733
0.37066
0.370596
0.370541
0.370496
0.37046
0.370434
0.370418
0.370413
0.370419
0.370436
0.370464
0.370504
0.370555
0.370617
0.370692
0.370778
0.370876
0.370986
0.371107
0.37124
0.371384
0.37154
0.371706
0.371884
0.372071
0.37227
0.372478
0.372696
0.372923
0.373159
0.373404
0.373657
0.373918
0.374187
0.374462
0.374745
0.375034
0.375329
0.37563
0.375936
0.376247
0.376563
0.376884
0.377209
0.377537
0.37787
0.378205
0.378544
0.378886
0.37923
0.379577
0.379927
0.380278
0.380631
0.380985
0.381341
0.381698
0.382056
0.382413
0.382771
0.383129
0.383485
0.383841
0.384195
0.384547
0.384897
0.385244
0.385589
0.38593
0.386268
0.386602
0.386933
0.387259
0.387582
0.3879
0.388213
0.388522
0.388826
0.389124
0.389418
0.389706
0.389989
0.390265
0.390536
0.390801
0.39106
0.391312
0.391558
0.391797
0.392029
0.392254
0.392471
0.392681
0.392884
0.393078
0.393265
0.393443
0.393613
0.393775
0.393928
0.394071
0.394206
0.394332
0.394448
0.394555
0.394652
0.394739
0.394816
0.394884
0.39494
0.394987
0.395023
0.395049
0.395064
0.395068
0.395061
0.395044
0.395016
0.394977
0.394926
0.394865
0.394793
0.39471
0.394616
0.394511
0.394395
0.394269
0.394132
0.393984
0.393826
0.393657
0.393479
0.393291
0.393093
0.392886
0.39267
0.392444
0.392209
0.391965
0.391712
0.391449
0.391178
0.390895
0.390607
0.390295
0.390032
0.389613
0.378492
0.378417
0.378347
0.378271
0.378186
0.378088
0.37798
0.377863
0.377737
0.377603
0.377463
0.377318
0.377168
0.377014
0.376857
0.376698
0.376537
0.376376
0.376215
0.376055
0.375896
0.375739
0.375584
0.375433
0.375285
0.375142
0.375003
0.374869
0.374741
0.37462
0.374505
0.374396
0.374296
0.374203
0.374119
0.374043
0.373976
0.373919
0.373871
0.373834
0.373807
0.37379
0.373784
0.373789
0.373805
0.373832
0.37387
0.37392
0.373982
0.374055
0.374139
0.374235
0.374342
0.37446
0.37459
0.37473
0.374881
0.375042
0.375213
0.375395
0.375586
0.375786
0.375996
0.376214
0.37644
0.376675
0.376917
0.377167
0.377424
0.377687
0.377957
0.378233
0.378514
0.378801
0.379093
0.37939
0.379692
0.379998
0.380308
0.380622
0.380939
0.381261
0.381585
0.381913
0.382243
0.382577
0.382912
0.38325
0.38359
0.383932
0.384275
0.384619
0.384964
0.385309
0.385653
0.385998
0.386342
0.386684
0.387025
0.387363
0.3877
0.388033
0.388364
0.388692
0.389016
0.389337
0.389654
0.389968
0.390277
0.390581
0.390881
0.391177
0.391467
0.391753
0.392033
0.392308
0.392577
0.39284
0.393097
0.393348
0.393593
0.393831
0.394062
0.394286
0.394503
0.394712
0.394914
0.395108
0.395295
0.395473
0.395642
0.395803
0.395956
0.396099
0.396233
0.396359
0.396474
0.39658
0.396676
0.396762
0.396838
0.396904
0.39696
0.397005
0.397039
0.397063
0.397076
0.397077
0.397068
0.397048
0.397017
0.396975
0.396921
0.396856
0.39678
0.396693
0.396595
0.396486
0.396365
0.396234
0.396092
0.395939
0.395775
0.395602
0.395418
0.395224
0.395021
0.394808
0.394585
0.394353
0.394112
0.393862
0.393603
0.393335
0.393057
0.392768
0.392475
0.392157
0.391886
0.391459
0.383021
0.382943
0.382865
0.382779
0.382682
0.382572
0.38245
0.382318
0.382177
0.382027
0.38187
0.381707
0.381539
0.381367
0.381191
0.381012
0.380832
0.380652
0.38047
0.38029
0.380111
0.379933
0.379758
0.379586
0.379417
0.379253
0.379093
0.378938
0.378789
0.378646
0.37851
0.37838
0.378257
0.378142
0.378036
0.377937
0.377848
0.377767
0.377696
0.377635
0.377583
0.377542
0.377511
0.377491
0.377482
0.377483
0.377496
0.377519
0.377554
0.3776
0.377657
0.377725
0.377804
0.377894
0.377994
0.378106
0.378228
0.37836
0.378502
0.378654
0.378816
0.378986
0.379166
0.379355
0.379552
0.379757
0.37997
0.38019
0.380418
0.380652
0.380893
0.381141
0.381394
0.381653
0.381918
0.382188
0.382462
0.382742
0.383026
0.383315
0.383608
0.383905
0.384206
0.384511
0.384819
0.38513
0.385445
0.385762
0.386083
0.386405
0.38673
0.387057
0.387385
0.387713
0.388043
0.388373
0.388702
0.389031
0.389359
0.389685
0.39001
0.390333
0.390653
0.390971
0.391286
0.391598
0.391907
0.392212
0.392514
0.392812
0.393106
0.393395
0.39368
0.39396
0.394235
0.394505
0.39477
0.395029
0.395282
0.39553
0.395771
0.396006
0.396234
0.396456
0.39667
0.396878
0.397077
0.397269
0.397454
0.39763
0.397797
0.397957
0.398107
0.398249
0.398381
0.398505
0.398619
0.398723
0.398817
0.398901
0.398975
0.399039
0.399092
0.399135
0.399166
0.399187
0.399197
0.399196
0.399184
0.399161
0.399126
0.39908
0.399023
0.398954
0.398874
0.398783
0.39868
0.398566
0.398441
0.398305
0.398157
0.397999
0.397831
0.397651
0.397462
0.397262
0.397053
0.396834
0.396606
0.396368
0.396121
0.395865
0.3956
0.395325
0.395042
0.394748
0.394448
0.394125
0.393848
0.393414
0.388045
0.387963
0.387874
0.387776
0.387665
0.38754
0.387402
0.387252
0.387092
0.386923
0.386746
0.386562
0.386372
0.386178
0.38598
0.385779
0.385576
0.385372
0.385168
0.384965
0.384762
0.384561
0.384363
0.384168
0.383976
0.383788
0.383605
0.383427
0.383255
0.383088
0.382928
0.382774
0.382628
0.382489
0.382358
0.382236
0.382121
0.382016
0.38192
0.381833
0.381755
0.381688
0.381631
0.381583
0.381547
0.38152
0.381505
0.3815
0.381505
0.381522
0.381549
0.381587
0.381636
0.381695
0.381765
0.381845
0.381935
0.382035
0.382145
0.382265
0.382394
0.382533
0.38268
0.382836
0.383
0.383172
0.383352
0.38354
0.383735
0.383937
0.384146
0.384361
0.384583
0.384811
0.385044
0.385283
0.385528
0.385777
0.386032
0.386291
0.386556
0.386824
0.387098
0.387375
0.387657
0.387943
0.388232
0.388525
0.388822
0.389121
0.389424
0.389729
0.390035
0.390344
0.390654
0.390965
0.391277
0.391588
0.391899
0.392209
0.392518
0.392826
0.393132
0.393437
0.393739
0.394039
0.394336
0.39463
0.394921
0.395208
0.395492
0.395773
0.396049
0.396321
0.396588
0.396851
0.397108
0.397361
0.397608
0.397849
0.398085
0.398314
0.398537
0.398754
0.398964
0.399166
0.399362
0.39955
0.39973
0.399903
0.400067
0.400223
0.40037
0.400508
0.400637
0.400758
0.400868
0.400969
0.40106
0.401141
0.401212
0.401273
0.401323
0.401362
0.401391
0.401409
0.401415
0.401411
0.401395
0.401368
0.401329
0.401279
0.401218
0.401145
0.40106
0.400964
0.400857
0.400738
0.400608
0.400467
0.400314
0.400151
0.399976
0.399792
0.399597
0.399391
0.399176
0.398951
0.398717
0.398473
0.39822
0.397958
0.397687
0.397407
0.397118
0.396818
0.396514
0.396185
0.395902
0.395463
0.393592
0.393503
0.393403
0.39329
0.393162
0.393018
0.392859
0.392688
0.392505
0.392312
0.39211
0.391901
0.391685
0.391464
0.39124
0.391012
0.390782
0.390552
0.390321
0.390091
0.389862
0.389635
0.389411
0.389189
0.388972
0.388758
0.388549
0.388346
0.388148
0.387955
0.387769
0.38759
0.387418
0.387253
0.387096
0.386947
0.386806
0.386674
0.386551
0.386436
0.386331
0.386236
0.38615
0.386074
0.386007
0.385951
0.385906
0.38587
0.385845
0.385829
0.385825
0.38583
0.385846
0.385872
0.385908
0.385954
0.38601
0.386075
0.38615
0.386235
0.386328
0.386431
0.386542
0.386662
0.38679
0.386926
0.38707
0.387222
0.387381
0.387547
0.38772
0.387899
0.388085
0.388278
0.388476
0.38868
0.38889
0.389106
0.389327
0.389553
0.389784
0.390021
0.390262
0.390509
0.39076
0.391015
0.391275
0.39154
0.391808
0.39208
0.392356
0.392634
0.392915
0.393199
0.393486
0.393774
0.394062
0.394352
0.394642
0.394931
0.395221
0.39551
0.395798
0.396085
0.39637
0.396653
0.396935
0.397214
0.397491
0.397765
0.398036
0.398303
0.398567
0.398828
0.399084
0.399336
0.399583
0.399826
0.400064
0.400297
0.400524
0.400745
0.400961
0.40117
0.401372
0.401568
0.401757
0.401939
0.402113
0.40228
0.402439
0.402589
0.402731
0.402865
0.402989
0.403104
0.40321
0.403307
0.403394
0.40347
0.403537
0.403593
0.403639
0.403674
0.403699
0.403712
0.403715
0.403706
0.403686
0.403654
0.403611
0.403557
0.403491
0.403413
0.403324
0.403223
0.403111
0.402987
0.402851
0.402705
0.402547
0.402378
0.402199
0.402008
0.401807
0.401596
0.401375
0.401145
0.400904
0.400655
0.400396
0.400128
0.399852
0.399566
0.399272
0.398967
0.398658
0.398325
0.398036
0.397593
0.399696
0.399597
0.399483
0.399352
0.399201
0.399033
0.398848
0.398649
0.398437
0.398213
0.39798
0.397739
0.397492
0.397239
0.396982
0.396723
0.396462
0.3962
0.395939
0.395678
0.395419
0.395162
0.394908
0.394658
0.394412
0.39417
0.393932
0.393701
0.393474
0.393254
0.393041
0.392833
0.392633
0.39244
0.392255
0.392078
0.391908