/*--------------------------------*- C++ -*----------------------------------*\
| =========                 |                                                 |
| \\      /  F ield         | OpenFOAM: The Open Source CFD Toolbox           |
|  \\    /   O peration     | Version:  4.1                                   |
|   \\  /    A nd           | Web:      www.OpenFOAM.org                      |
|    \\/     M anipulation  |                                                 |
\*---------------------------------------------------------------------------*/
FoamFile
{
    version     2.0;
    format      ascii;
    class       volScalarField;
    location    "0.065";
    object      T;
}
// * * * * * * * * * * * * * * * * * * * * * * * * * * * * * * * * * * * * * //

dimensions      [0 0 0 1 0 0 0];

internalField   nonuniform List<scalar> 
12225
(
1.11552
1.23317
1.29917
1.34126
1.36974
1.38851
1.40119
1.41004
1.41642
1.42116
1.42479
1.42763
1.4299
1.43177
1.4333
1.43469
1.43581
1.43518
0.860947
0.707839
0.632408
0.594821
0.576427
0.569644
0.569414
0.572758
0.577971
0.584077
0.590513
0.596954
0.603214
0.609181
0.61481
0.619994
0.624958
0.628865
1.03458
1.08006
1.10414
1.11423
1.11556
1.11189
1.10559
1.09802
1.08996
1.08185
1.07398
1.06647
1.05942
1.05284
1.04677
1.04114
1.0362
1.0315
1.00165
0.998855
0.992981
0.988432
0.986044
0.98539
0.98593
0.9872
0.988859
0.990683
0.992533
0.994323
0.995998
0.997539
0.998939
1.00018
1.0013
1.00234
1.00023
1.00039
1.00026
1.00043
1.00067
1.0008
1.00084
1.0008
1.00072
1.00062
1.00051
1.00042
1.00033
1.00027
1.00023
1.00019
1.00021
1.00021
0.999584
0.999244
0.998899
0.998714
0.99862
0.998535
0.998453
0.99839
0.998342
0.998302
0.998271
0.998244
0.99822
0.998204
0.998189
0.998174
0.998175
0.998153
0.999929
1.00011
1.00016
1.00019
1.00023
1.00025
1.00026
1.00026
1.00026
1.00026
1.00026
1.00025
1.00024
1.00023
1.00022
1.00021
1.00021
1.00019
0.999971
1.00007
1.00006
1.00002
1.00001
1.00001
1.00001
1
1
1
1
1.00001
1.00002
1.00002
1.00002
1.00003
1.00003
1.00003
0.999979
1.00004
1.00003
1.00002
1.00002
1.00002
1.00002
1.00002
1.00002
1.00003
1.00003
1.00003
1.00003
1.00003
1.00003
1.00003
1.00003
1.00003
0.999978
1.00002
1.00001
0.999998
0.999998
1
0.999999
0.999997
0.999996
0.999997
0.999995
0.999996
1
0.999999
0.999995
1
0.999995
0.999997
0.999985
1.00001
1.00001
1
1
0.999997
0.999997
0.999997
1
1
1
0.999998
0.999997
1
1
1
0.999997
1
0.999988
1.00001
1.00001
0.999999
0.999997
0.999999
0.999998
0.999999
0.999998
0.999996
0.999996
0.999997
0.999999
0.999999
1
1
0.999996
1
0.999989
1.00001
1.00001
1
0.999999
0.999999
1
1
0.999999
0.999998
1
0.999998
0.999999
1
0.999999
1
0.999993
0.999997
0.999991
1
1.00001
1.00001
1
1
0.999997
0.999998
0.999999
0.999998
0.999996
0.999998
0.999997
0.999997
0.999997
0.999997
0.999994
1
0.999993
1
1.00001
1.00001
1
1
0.999998
0.999999
0.999999
0.999999
1
0.999999
0.999999
1
0.999995
0.999998
0.999992
0.999998
0.999994
1
1.00001
1
1
1
1
0.999999
0.999999
0.999997
0.999997
1
1
1
0.999999
0.999998
0.999993
0.999999
0.999993
1
1
1
1
1
1
1
0.999999
1
1
0.999999
0.999998
0.999999
1
1
0.999997
0.999999
0.999995
1
1
1.00001
1.00001
1.00001
1
1
1
1
1
1
1.00001
1.00001
1
1
0.999997
1
0.999995
1
1
1
1
1
1.00001
1
0.999999
1
1
1
0.999997
0.999995
0.999999
0.999997
0.999991
0.999995
0.999992
1
1
1
1
1
1.00001
1.00001
1.00001
1
1.00001
1.00001
1.00001
1.00001
1.00001
1.00001
1.00001
1.00002
0.999991
0.999999
1.00001
1
0.999996
0.999991
0.999991
0.999988
0.999986
0.999985
0.999981
0.999979
0.999975
0.999972
0.999972
0.999972
0.999964
0.999966
0.999988
1
1.00001
1.00001
1.00002
1.00002
1.00003
1.00004
1.00004
1.00005
1.00006
1.00006
1.00007
1.00007
1.00008
1.00008
1.00008
1.00009
0.999982
1
1
0.999974
0.999943
0.999921
0.9999
0.999878
0.99986
0.999842
0.999828
0.999815
0.999802
0.999795
0.999786
0.999779
0.99977
0.999767
0.999965
1.00007
1.00018
1.00024
1.0003
1.00037
1.00043
1.00049
1.00054
1.00058
1.00062
1.00065
1.00067
1.00069
1.00071
1.00072
1.00073
1.00074
0.999753
0.999568
0.999366
0.999131
0.998913
0.998704
0.998509
0.998342
0.998201
0.998088
0.998002
0.997936
0.997889
0.997856
0.997838
0.997829
0.997822
0.997814
0.999992
1.00043
1.00095
1.00167
1.00247
1.00316
1.00368
1.00405
1.00429
1.00442
1.00447
1.00446
1.0044
1.00432
1.00421
1.00409
1.00396
1.00386
0.999945
0.996247
0.990161
0.98452
0.980273
0.977358
0.975527
0.97452
0.974115
0.974128
0.974432
0.974931
0.975556
0.976259
0.977006
0.977763
0.978549
0.979195
1.0214
1.05634
1.0798
1.09471
1.10362
1.10848
1.11069
1.11118
1.11056
1.10922
1.10743
1.10537
1.10317
1.1009
1.09862
1.09638
1.09417
1.09224
0.922802
0.82784
0.774466
0.743959
0.725618
0.714657
0.708441
0.705217
0.70388
0.70374
0.704359
0.705454
0.70684
0.708395
0.710039
0.711701
0.713398
0.714943
1.06291
1.12901
1.16726
1.19166
1.20826
1.21975
1.22781
1.23361
1.2379
1.24113
1.24365
1.24564
1.24725
1.24858
1.24971
1.25063
1.25155
1.25214
-1.71691e-19
3.79223e-22
-7.91128e-20
-6.31832e-20
-4.02534e-21
3.69313e-20
7.29185e-20
1.01464e-19
1.12685e-19
1.08767e-19
9.66292e-20
8.14284e-20
6.63373e-20
5.22098e-20
3.85527e-20
3.53978e-20
7.7588e-20
9.13611e-20
-5.38325e-19
-2.50163e-18
-1.45835e-18
2.06014e-17
7.91903e-17
8.54401e-17
-3.31857e-16
-1.74057e-15
-3.71757e-15
-1.82578e-15
1.58275e-14
6.59118e-14
1.48336e-13
1.92463e-13
-2.71597e-14
-9.64607e-13
-3.26507e-12
-7.4569e-12
-1.31996e-11
-1.7994e-11
-1.54718e-11
6.2807e-12
6.55008e-11
1.85409e-10
3.89375e-10
6.91415e-10
1.08152e-09
1.50639e-09
1.84778e-09
1.90223e-09
1.36731e-09
-1.58965e-10
-3.1588e-09
-8.14989e-09
-1.56112e-08
-2.58788e-08
-3.90152e-08
-5.46592e-08
-7.18695e-08
-8.89764e-08
-1.03464e-07
-1.11899e-07
-1.09929e-07
-9.23673e-08
-5.3381e-08
1.32131e-08
1.13541e-07
2.53159e-07
4.36449e-07
6.65947e-07
9.41628e-07
1.2602e-06
1.61441e-06
1.99248e-06
2.37757e-06
2.74756e-06
3.07485e-06
3.32657e-06
3.46492e-06
3.44787e-06
3.23009e-06
2.76418e-06
2.00218e-06
8.97279e-07
-5.94261e-07
-2.511e-06
-4.88414e-06
-7.73527e-06
-1.10741e-05
-1.48962e-05
-1.9181e-05
-2.38899e-05
-2.89643e-05
-3.43242e-05
-3.98666e-05
-4.54649e-05
-5.09676e-05
-5.61983e-05
-6.09545e-05
-6.50082e-05
-6.81054e-05
-6.99673e-05
-7.02927e-05
-6.8764e-05
-6.50753e-05
-5.9018e-05
-5.03919e-05
-3.90377e-05
-2.48352e-05
-7.70848e-06
1.23711e-05
3.53832e-05
6.12578e-05
8.98754e-05
0.000121069
0.000154627
0.000190297
0.000227789
0.000266785
0.000306942
0.0003479
0.000389291
0.000430746
0.000471901
0.000512408
0.000551941
0.000590197
0.000626913
0.00066186
0.000694856
0.000725766
0.000754503
0.000781033
0.000805365
0.000827559
0.000847715
0.000865971
0.000882497
0.000897496
0.000911194
0.000923821
0.000935612
0.000946798
0.000957597
0.000968212
0.000978812
0.000989537
0.00100049
0.00101173
0.00102327
0.00103511
0.00104717
0.00105934
0.00107148
0.00108341
0.00109496
0.0011059
0.00111594
0.00112489
0.0011326
0.00113869
0.00114321
0.00114482
0.00114427
0.00114277
0.00113648
0.0011184
0.00108629
0.00104892
0.00101006
0.000969785
0.000927952
0.000884486
0.00083925
0.000791993
0.000742001
0.000688426
0.000628036
0.000559392
0.000465884
0.000357452
0.000106196
4.23104e-18
5.19402e-19
4.10013e-19
-4.23306e-19
-1.20797e-18
-1.77235e-18
-2.03089e-18
-2.03301e-18
-1.87877e-18
-1.65395e-18
-1.41337e-18
-1.18574e-18
-9.83204e-19
-8.06689e-19
-6.44645e-19
-4.97305e-19
-5.05378e-19
-1.01265e-18
-1.44502e-18
3.18027e-18
2.24483e-17
4.47609e-17
-3.73607e-17
-4.78764e-16
-1.3897e-15
-1.57893e-15
3.43353e-15
2.18866e-14
5.82498e-14
8.81686e-14
1.15947e-14
-3.9717e-13
-1.47811e-12
-3.49049e-12
-6.07605e-12
-7.26571e-12
-2.10069e-12
1.86977e-11
6.9065e-11
1.65461e-10
3.20469e-10
5.30477e-10
7.56728e-10
9.00849e-10
7.78659e-10
9.93105e-11
-1.54002e-09
-4.63133e-09
-9.69192e-09
-1.71482e-08
-2.71607e-08
-3.93921e-08
-5.2731e-08
-6.49969e-08
-7.26658e-08
-7.06676e-08
-5.23127e-08
-9.41355e-09
6.73396e-08
1.87698e-07
3.60839e-07
5.9401e-07
8.9086e-07
1.24952e-06
1.66053e-06
2.10479e-06
2.55162e-06
2.95726e-06
3.26385e-06
3.39928e-06
3.27795e-06
2.80277e-06
1.86837e-06
3.65642e-07
-1.8123e-06
-4.76298e-06
-8.56622e-06
-1.32751e-05
-1.89061e-05
-2.54296e-05
-3.27599e-05
-4.0747e-05
-4.9169e-05
-5.77261e-05
-6.60376e-05
-7.36411e-05
-7.99945e-05
-8.44816e-05
-8.64206e-05
-8.5076e-05
-7.96746e-05
-6.94219e-05
-5.35235e-05
-3.12074e-05
-1.74752e-06
3.55119e-05
8.11313e-05
0.00013555
0.000199061
0.00027177
0.000353517
0.000443588
0.000540845
0.000644438
0.000753231
0.000865939
0.000981121
0.00109722
0.00121256
0.00132539
0.00143392
0.0015363
0.0016307
0.00171529
0.00178828
0.00184795
0.00189267
0.00192088
0.00193117
0.00192224
0.00189296
0.00184236
0.00176962
0.00167417
0.00155559
0.00141371
0.00124861
0.00106059
0.000850224
0.000618336
0.00036604
9.47179e-05
-0.000193973
-0.000498092
-0.000815431
-0.00114352
-0.00147967
-0.001821
-0.00216444
-0.00250675
-0.00284454
-0.00317437
-0.00349285
-0.00379667
-0.00408257
-0.00434722
-0.00458772
-0.00480168
-0.00498679
-0.00514059
-0.00526152
-0.00534922
-0.0054018
-0.00541901
-0.00540361
-0.00535291
-0.00526784
-0.00515281
-0.00500387
-0.00482699
-0.00462501
-0.00438587
-0.00411883
-0.0038425
-0.00352927
-0.00316888
-0.00279449
-0.00242376
-0.00206268
-0.00171333
-0.00137655
-0.00105245
-0.00074048
-0.00043891
-0.000145054
0.000146089
0.000441066
0.000738477
0.0010718
0.00120576
2.02046e-17
-6.81795e-20
7.94915e-18
1.6868e-17
2.09428e-17
2.15223e-17
2.03013e-17
1.83136e-17
1.61033e-17
1.39415e-17
1.19561e-17
1.01949e-17
8.66381e-18
7.35475e-18
6.25204e-18
5.24329e-18
3.96367e-18
2.35291e-18
3.56655e-18
1.72713e-17
4.6599e-17
2.77081e-17
-2.60324e-16
-1.09289e-15
-1.9796e-15
2.687e-16
1.33263e-14
4.57264e-14
8.77599e-14
6.76926e-14
-2.07931e-13
-1.07518e-12
-2.8686e-12
-5.42046e-12
-7.02167e-12
-2.8454e-12
1.67262e-11
6.67248e-11
1.65181e-10
3.2503e-10
5.37718e-10
7.4711e-10
8.15218e-10
4.85884e-10
-6.41457e-10
-3.10959e-09
-7.54979e-09
-1.45521e-08
-2.44391e-08
-3.69348e-08
-5.0737e-08
-6.30311e-08
-6.90103e-08
-6.15025e-08
-3.0831e-08
3.49461e-08
1.4927e-07
3.25658e-07
5.75545e-07
9.05355e-07
1.31289e-06
1.78323e-06
2.28437e-06
2.76319e-06
3.14198e-06
3.3165e-06
3.15583e-06
2.50497e-06
1.1904e-06
-9.70733e-07
-4.15768e-06
-8.52953e-06
-1.42052e-05
-2.12411e-05
-2.96065e-05
-3.91596e-05
-4.96234e-05
-6.05661e-05
-7.13857e-05
-8.13013e-05
-8.93537e-05
-9.44155e-05
-9.52131e-05
-9.03604e-05
-7.84048e-05
-5.78845e-05
-2.73963e-05
1.43279e-05
6.834e-05
0.000135392
0.00021585
0.000309621
0.000416077
0.000534005
0.000661557
0.000796238
0.000934894
0.00107374
0.00120839
0.00133399
0.0014454
0.00153784
0.00160701
0.00164829
0.00165742
0.00163052
0.00156415
0.00145547
0.00130225
0.00110295
0.000856752
0.000563587
0.000224106
-0.000160329
-0.000587686
-0.00105534
-0.00156013
-0.00209848
-0.00266648
-0.00326002
-0.0038749
-0.00450693
-0.0051521
-0.0058066
-0.00646697
-0.00713018
-0.00779371
-0.00845556
-0.00911427
-0.00976908
-0.0104198
-0.0110665
-0.0117103
-0.012352
-0.0129931
-0.0136353
-0.0142802
-0.0149296
-0.0155852
-0.0162483
-0.0169197
-0.0176
-0.0182887
-0.018985
-0.0196875
-0.0203935
-0.0211001
-0.0218036
-0.0224997
-0.023183
-0.0238478
-0.0244878
-0.0250956
-0.0256664
-0.0261965
-0.0266737
-0.027092
-0.0274529
-0.0277373
-0.0279476
-0.0280799
-0.0281128
-0.0280438
-0.0278853
-0.0276256
-0.0272425
-0.0267423
-0.0261427
-0.0254567
-0.0246922
-0.0238532
-0.0229404
-0.0219505
-0.020872
-0.0196866
-0.0183419
-0.0167984
-0.0147986
-0.0125885
-0.00779725
-1.38877e-17
-2.69023e-17
-1.28462e-16
-1.63566e-16
-1.59344e-16
-1.43932e-16
-1.26698e-16
-1.10455e-16
-9.59506e-17
-8.32325e-17
-7.2173e-17
-6.26031e-17
-5.43465e-17
-4.72191e-17
-4.1058e-17
-3.58724e-17
-3.19683e-17
-2.89175e-17
-2.1732e-17
1.6012e-18
3.91597e-17
-2.28665e-18
-4.01583e-16
-1.44361e-15
-2.349e-15
1.04253e-15
1.80647e-14
5.78663e-14
1.04816e-13
6.47105e-14
-3.04028e-13
-1.40018e-12
-3.56541e-12
-6.40168e-12
-7.40797e-12
-3.63863e-15
2.83431e-11
9.61328e-11
2.23058e-10
4.16665e-10
6.47032e-10
8.0846e-10
6.72437e-10
-1.55778e-10
-2.25444e-09
-6.3441e-09
-1.31493e-08
-2.31259e-08
-3.60295e-08
-5.03298e-08
-6.25155e-08
-6.63944e-08
-5.2552e-08
-8.19096e-09
8.23805e-08
2.36341e-07
4.69782e-07
7.93821e-07
1.20939e-06
1.70089e-06
2.2292e-06
2.7247e-06
3.08135e-06
3.15292e-06
2.75285e-06
1.65904e-06
-3.75331e-07
-3.60382e-06
-8.26131e-06
-1.45312e-05
-2.25063e-05
-3.21455e-05
-4.32276e-05
-5.53083e-05
-6.76819e-05
-7.93536e-05
-8.90269e-05
-9.51114e-05
-9.57533e-05
-8.88923e-05
-7.23479e-05
-4.39313e-05
-1.58554e-06
5.64546e-05
0.000131487
0.000224157
0.000334276
0.000460652
0.000600943
0.000751541
0.0009075
0.00106252
0.00120898
0.00133802
0.00143973
0.0015033
0.00151735
0.00147015
0.00135007
0.00114606
0.00084868
0.000451329
-5.35498e-05
-0.000671555
-0.00140664
-0.00226083
-0.00323407
-0.00432408
-0.00552627
-0.00683373
-0.00823714
-0.00972482
-0.0112828
-0.0128951
-0.0145434
-0.0162079
-0.0178671
-0.0194983
-0.0210778
-0.0225815
-0.0239852
-0.0252648
-0.0263972
-0.0273606
-0.0281348
-0.0287014
-0.0290451
-0.0291536
-0.0290177
-0.0286321
-0.0279958
-0.0271117
-0.0259871
-0.0246333
-0.0230661
-0.021305
-0.0193735
-0.0172986
-0.01511
-0.0128403
-0.0105245
-0.00819932
-0.00590169
-0.00366789
-0.00153345
0.000465901
0.00229683
0.00393177
0.00534403
0.00650495
0.00739565
0.00801448
0.00834267
0.00836392
0.00809282
0.0075311
0.00667254
0.00552845
0.00413066
0.00248277
0.000616871
-0.00145308
-0.00371245
-0.00609171
-0.00858338
-0.0111832
-0.0138266
-0.0164517
-0.0190113
-0.0214719
-0.0238101
-0.0260094
-0.0280591
-0.0299509
-0.0316825
-0.0332289
-0.0346101
-0.0355557
-0.0364775
-0.0346677
-7.3939e-16
8.68313e-17
7.77483e-16
8.79543e-16
8.06603e-16
7.0706e-16
6.13771e-16
5.32967e-16
4.64441e-16
4.06232e-16
3.56455e-16
3.13618e-16
2.76615e-16
2.44597e-16
2.16857e-16
1.92612e-16
1.70855e-16
1.51346e-16
1.38402e-16
1.43956e-16
1.69265e-16
1.30872e-16
-2.44784e-16
-1.30082e-15
-2.49268e-15
-7.92736e-17
1.52324e-14
5.46337e-14
1.09138e-13
9.61664e-14
-2.17395e-13
-1.24809e-12
-3.41528e-12
-6.4729e-12
-8.07802e-12
-1.59425e-12
2.61431e-11
9.51218e-11
2.26965e-10
4.29486e-10
6.66401e-10
8.10622e-10
5.86571e-10
-4.81586e-10
-3.08419e-09
-8.05649e-09
-1.61696e-08
-2.7729e-08
-4.19512e-08
-5.61348e-08
-6.47176e-08
-5.84027e-08
-2.3645e-08
5.71239e-08
2.04097e-07
4.37095e-07
7.7064e-07
1.207e-06
1.72743e-06
2.28215e-06
2.78036e-06
3.08172e-06
2.99145e-06
2.26136e-06
5.99115e-07
-2.312e-06
-6.78152e-06
-1.30678e-05
-2.13221e-05
-3.15241e-05
-4.34114e-05
-5.64097e-05
-6.95717e-05
-8.15307e-05
-9.04799e-05
-9.41835e-05
-9.00295e-05
-7.51276e-05
-4.64531e-05
-1.03901e-06
6.37917e-05
0.000150162
0.000259355
0.000391533
0.000545462
0.000718276
0.000905303
0.00109994
0.00129364
0.00147596
0.00163473
0.00175628
0.0018258
0.00182773
0.00174617
0.00156535
0.00127015
0.000846469
0.000281627
-0.000435518
-0.00131517
-0.0023678
-0.00359975
-0.00501552
-0.00661706
-0.00840373
-0.0103721
-0.0125156
-0.0148246
-0.0172863
-0.0198839
-0.0225973
-0.0254026
-0.0282717
-0.0311726
-0.0340697
-0.0369226
-0.0396877
-0.0423174
-0.0447613
-0.0469658
-0.0488749
-0.0504316
-0.0515779
-0.0522558
-0.0524089
-0.0519828
-0.0509269
-0.0491952
-0.0467478
-0.0435521
-0.0395846
-0.0348306
-0.0292861
-0.0229579
-0.0158647
-0.0080369
0.00048295
0.00964105
0.0193725
0.0296014
0.0402411
0.0511961
0.0623644
0.0736385
0.0849048
0.0960505
0.106969
0.117554
0.127676
0.137227
0.146153
0.154339
0.161681
0.168147
0.17366
0.178164
0.181628
0.184036
0.185363
0.185612
0.184784
0.182886
0.179991
0.176117
0.171265
0.165518
0.158997
0.151814
0.144067
0.135829
0.127146
0.118032
0.10845
0.0983181
0.08741
0.0755399
0.061773
0.0474321
0.0235739
9.95986e-15
9.34156e-16
-2.573e-15
-3.39571e-15
-3.29182e-15
-2.97086e-15
-2.62568e-15
-2.3087e-15
-2.03295e-15
-1.79618e-15
-1.59255e-15
-1.41625e-15
-1.26273e-15
-1.12859e-15
-1.0112e-15
-9.08533e-16
-8.19132e-16
-7.4142e-16
-6.70733e-16
-5.95309e-16
-5.05316e-16
-4.46369e-16
-6.24112e-16
-1.40473e-15
-2.72545e-15
-2.25686e-15
7.34398e-15
3.81434e-14
9.32803e-14
1.25078e-13
-3.98369e-14
-7.68494e-13
-2.54884e-12
-5.51707e-12
-8.25313e-12
-5.66417e-12
1.36176e-11
6.8657e-11
1.82985e-10
3.71424e-10
6.11008e-10
7.92319e-10
6.54587e-10
-2.78969e-10
-2.73059e-09
-7.60668e-09
-1.57744e-08
-2.76033e-08
-4.22248e-08
-5.65198e-08
-6.39473e-08
-5.3458e-08
-8.89135e-09
9.06104e-08
2.68554e-07
5.46806e-07
9.3864e-07
1.43901e-06
2.0125e-06
2.58005e-06
3.00638e-06
3.09069e-06
2.56393e-06
1.0962e-06
-1.68227e-06
-6.14402e-06
-1.26096e-05
-2.12757e-05
-3.2129e-05
-4.48516e-05
-5.87264e-05
-7.25521e-05
-8.45809e-05
-9.2491e-05
-9.34072e-05
-8.39748e-05
-6.04977e-05
-1.91393e-05
4.38215e-05
0.000131687
0.000247008
0.00039125
0.000564469
0.000765042
0.000989464
0.00123223
0.00148583
0.00174085
0.00198618
0.00220929
0.00239662
0.002534
0.00260703
0.00260152
0.00250382
0.00230115
0.00198175
0.00153496
0.000951129
0.000220681
-0.000669418
-0.0017276
-0.00296158
-0.00437811
-0.00598301
-0.00778102
-0.00977572
-0.0119693
-0.0143622
-0.0169529
-0.0197371
-0.0227076
-0.0258531
-0.029158
-0.0326011
-0.0361552
-0.0397857
-0.0434508
-0.0470994
-0.050672
-0.0540997
-0.057304
-0.0601976
-0.0626845
-0.0646616
-0.0660196
-0.0666443
-0.0664197
-0.0652294
-0.0629595
-0.0595017
-0.0547559
-0.0486342
-0.0410632
-0.031986
-0.021366
-0.00918731
0.00454196
0.0197897
0.0364998
0.054593
0.073967
0.0944968
0.116036
0.138419
0.16146
0.18497
0.208756
0.232635
0.256369
0.27973
0.302589
0.324715
0.345905
0.366007
0.384863
0.402333
0.4183
0.432653
0.445305
0.456184
0.465237
0.472424
0.477744
0.481191
0.482754
0.482473
0.480426
0.4767
0.471384
0.464545
0.456224
0.44642
0.435043
0.421949
0.406643
0.388967
0.366382
0.343165
0.296238
-6.86016e-14
-1.01231e-14
4.8034e-15
1.10072e-14
1.22236e-14
1.17509e-14
1.07587e-14
9.66212e-15
8.62569e-15
7.69857e-15
6.88446e-15
6.17069e-15
5.54257e-15
4.98788e-15
4.49722e-15
4.06313e-15
3.67913e-15
3.33944e-15
3.04029e-15
2.78342e-15
2.57546e-15
2.40113e-15
2.14547e-15
1.51487e-15
2.38098e-16
-8.67532e-16
2.43056e-15
1.98596e-14
6.21729e-14
1.17379e-13
9.42751e-14
-2.58549e-13
-1.38528e-12
-3.71843e-12
-6.92183e-12
-8.2514e-12
-2.56372e-14
3.28811e-11
1.12943e-10
2.62526e-10
4.82511e-10
7.1075e-10
7.58802e-10
2.36825e-10
-1.50451e-09
-5.36151e-09
-1.23164e-08
-2.3037e-08
-3.71584e-08
-5.22218e-08
-6.2351e-08
-5.69004e-08
-1.95061e-08
7.18377e-08
2.4291e-07
5.18805e-07
9.16262e-07
1.43253e-06
2.03118e-06
2.62624e-06
3.06681e-06
3.12578e-06
2.49645e-06
8.02041e-07
-2.37799e-06
-7.46126e-06
-1.47942e-05
-2.45637e-05
-3.66929e-05
-5.07299e-05
-6.57409e-05
-8.02205e-05
-9.20362e-05
-9.84211e-05
-9.60245e-05
-8.10323e-05
-4.93519e-05
3.13836e-06
8.02945e-05
0.000185388
0.000320787
0.000487671
0.0006858
0.000913378
0.00116701
0.00144178
0.00173138
0.00202844
0.00232477
0.00261171
0.00288053
0.0031226
0.00332965
0.00349388
0.00360791
0.00366476
0.00365761
0.00357964
0.00342384
0.00318327
0.00285449
0.00243018
0.00190224
0.00126135
0.000496831
-0.000403658
-0.00145417
-0.00267051
-0.00407013
-0.00567186
-0.00749537
-0.00956053
-0.0118864
-0.01449
-0.0173849
-0.0205792
-0.0240739
-0.0278606
-0.0319187
-0.0362143
-0.040697
-0.0452985
-0.0499308
-0.0544858
-0.0588352
-0.0628305
-0.0663051
-0.0690772
-0.0709518
-0.0717248
-0.0711893
-0.0691398
-0.0653794
-0.0597251
-0.0520148
-0.0421133
-0.0299174
-0.0153586
0.00159197
0.0209209
0.0425741
0.066457
0.0924369
0.120343
0.14998
0.181103
0.213458
0.246773
0.280806
0.315248
0.349796
0.384185
0.418155
0.451445
0.483831
0.515093
0.54503
0.573477
0.60028
0.625315
0.648477
0.66968
0.688865
0.705989
0.72103
0.733974
0.744829
0.753628
0.760414
0.765237
0.768143
0.769161
0.768291
0.765461
0.760595
0.753217
0.743469
0.728521
0.713734
0.675937
3.26175e-13
6.09881e-14
2.25527e-16
-3.2911e-14
-4.40354e-14
-4.56943e-14
-4.363e-14
-4.01829e-14
-3.64414e-14
-3.2865e-14
-2.96181e-14
-2.67216e-14
-2.41436e-14
-2.18439e-14
-1.97888e-14
-1.79511e-14
-1.63091e-14
-1.48446e-14
-1.35408e-14
-1.23796e-14
-1.13385e-14
-1.03967e-14
-9.57414e-15
-9.01243e-15
-8.9981e-15
-9.5866e-15
-9.27188e-15
-2.64623e-15
2.05918e-14
6.78063e-14
1.13673e-13
3.82136e-14
-4.48965e-13
-1.80525e-12
-4.35732e-12
-7.37735e-12
-7.23625e-12
5.23013e-12
4.68991e-11
1.40946e-10
3.06362e-10
5.31279e-10
7.24047e-10
6.4253e-10
-1.83521e-10
-2.49922e-09
-7.27408e-09
-1.54621e-08
-2.74712e-08
-4.22649e-08
-5.60972e-08
-6.10215e-08
-4.3509e-08
1.62515e-08
1.43592e-07
3.66235e-07
7.07931e-07
1.17832e-06
1.75906e-06
2.38712e-06
2.93743e-06
3.20795e-06
2.91164e-06
1.68021e-06
-9.15705e-07
-5.32594e-06
-1.1958e-05
-2.10932e-05
-3.27868e-05
-4.67605e-05
-6.22996e-05
-7.81695e-05
-9.25673e-05
-0.000103122
-0.000106955
-0.000100802
-8.11969e-05
-4.47035e-05
1.1823e-05
9.09702e-05
0.000194531
0.000323318
0.000477049
0.000654337
0.000852766
0.00106906
0.00129931
0.00153927
0.00178465
0.00203133
0.00227562
0.00251437
0.00274502
0.00296554
0.00317435
0.00337013
0.0035516
0.00371753
0.00386732
0.00400414
0.00412812
0.00423733
0.00432864
0.00439713
0.00443562
0.004434
0.00437878
0.00425246
0.00403292
0.00369309
0.00320061
0.00251788
0.00160233
0.000407295
-0.0011167
-0.00301995
-0.00535096
-0.00815317
-0.0114611
-0.0152957
-0.0196598
-0.024533
-0.0298667
-0.0355802
-0.0415575
-0.0476444
-0.0536491
-0.0593435
-0.0644672
-0.0687321
-0.0718288
-0.0734373
-0.0732366
-0.0709158
-0.0661852
-0.0587866
-0.0485137
-0.0352093
-0.0187736
0.000827092
0.0235606
0.0493269
0.077965
0.109252
0.142934
0.178693
0.21618
0.255041
0.294893
0.335366
0.376091
0.416722
0.45693
0.496406
0.534886
0.572131
0.60794
0.642148
0.674622
0.705261
0.733992
0.760772
0.78558
0.808414
0.829297
0.848258
0.865339
0.880601
0.894105
0.905913
0.916096
0.924714
0.931818
0.937418
0.941572
0.944025
0.945213
0.943149
0.94211
0.928878
-1.30858e-12
-3.10489e-13
-5.7853e-14
9.17676e-14
1.56023e-13
1.75786e-13
1.75483e-13
1.66121e-13
1.5334e-13
1.399e-13
1.27096e-13
1.15394e-13
1.0484e-13
9.53345e-14
8.67636e-14
7.90292e-14
7.20515e-14
6.57638e-14
6.01078e-14
5.50308e-14
5.04862e-14
4.64347e-14
4.28321e-14
3.95862e-14
3.64849e-14
3.32122e-14
2.97927e-14
2.79432e-14
3.32049e-14
5.53058e-14
9.94016e-14
1.36044e-13
4.16056e-14
-4.70089e-13
-1.83174e-12
-4.31304e-12
-7.10181e-12
-6.50538e-12
6.55999e-12
4.8524e-11
1.41421e-10
3.0202e-10
5.14802e-10
6.8298e-10
5.58482e-10
-3.33382e-10
-2.73537e-09
-7.59765e-09
-1.5821e-08
-2.77016e-08
-4.20043e-08
-5.46731e-08
-5.73358e-08
-3.59669e-08
2.96946e-08
1.65168e-07
3.97786e-07
7.49968e-07
1.22876e-06
1.81185e-06
2.43121e-06
2.95667e-06
3.18279e-06
2.82327e-06
1.51738e-06
-1.14756e-06
-5.5952e-06
-1.22006e-05
-2.12151e-05
-3.26829e-05
-4.63586e-05
-6.16382e-05
-7.75181e-05
-9.25928e-05
-0.000105099
-0.00011301
-0.000114183
-0.000106526
-8.81995e-05
-5.77975e-05
-1.45048e-05
4.17992e-05
0.000110506
0.000190321
0.000279374
0.000375401
0.000475955
0.000578637
0.000681324
0.000782357
0.000880711
0.000976085
0.00106897
0.00116067
0.00125329
0.00134969
0.00145335
0.00156829
0.00169868
0.001845
0.00201024
0.00219838
0.00241309
0.00265764
0.00293441
0.00324421
0.00358555
0.00395345
0.00433837
0.00472467
0.00508907
0.00539929
0.00561259
0.00567486
0.00552043
0.00507269
0.00424604
0.00294921
0.00109008
-0.00141828
-0.00464972
-0.0086561
-0.0134579
-0.0190348
-0.025317
-0.0321779
-0.0394288
-0.0468166
-0.0540277
-0.0606974
-0.0664139
-0.0707342
-0.0732011
-0.0733617
-0.07079
-0.0650856
-0.0559298
-0.0430777
-0.0263677
-0.00573607
0.0187825
0.0470515
0.0788441
0.113852
0.15169
0.191922
0.234074
0.277649
0.322142
0.367059
0.411923
0.456295
0.49978
0.542026
0.582738
0.621673
0.658642
0.69351
0.726184
0.756621
0.784812
0.810784
0.834593
0.856313
0.876036
0.893874
0.909934
0.924336
0.9372
0.948643
0.958781
0.967717
0.975562
0.982391
0.988346
0.993334
0.997881
1.00074
1.005
1.00459
5.07826e-12
1.46229e-12
4.14381e-13
-2.23977e-13
-5.4266e-13
-6.68795e-13
-6.99044e-13
-6.80956e-13
-6.40658e-13
-5.9203e-13
-5.42539e-13
-4.95736e-13
-4.52804e-13
-4.13738e-13
-3.78224e-13
-3.45922e-13
-3.16544e-13
-2.89851e-13
-2.6564e-13
-2.43725e-13
-2.23929e-13
-2.06082e-13
-1.90013e-13
-1.75567e-13
-1.62637e-13
-1.51227e-13
-1.41433e-13
-1.33045e-13
-1.24338e-13
-1.10158e-13
-8.13969e-14
-3.21962e-14
1.44672e-14
-4.54883e-14
-4.61191e-13
-1.62682e-12
-3.84106e-12
-6.54825e-12
-6.79934e-12
2.98872e-12
3.69854e-11
1.15007e-10
2.5401e-10
4.45726e-10
6.14777e-10
5.56923e-10
-1.30547e-10
-2.09393e-09
-6.1855e-09
-1.32607e-08
-2.37177e-08
-3.67085e-08
-4.90171e-08
-5.37278e-08
-3.89797e-08
1.26924e-08
1.23752e-07
3.19028e-07
6.20362e-07
1.03817e-06
1.5601e-06
2.13772e-06
2.67317e-06
3.00844e-06
2.92048e-06
2.12564e-06
2.95992e-07
-2.91121e-06
-7.81159e-06
-1.46428e-05
-2.35106e-05
-3.43402e-05
-4.68414e-05
-6.0497e-05
-7.45808e-05
-8.8207e-05
-0.000100411
-0.000110248
-0.000116911
-0.000119829
-0.000118755
-0.00011381
-0.000105484
-9.45899e-05
-8.21694e-05
-6.9377e-05
-5.73461e-05
-4.70617e-05
-3.9254e-05
-3.43222e-05
-3.22918e-05
-3.27988e-05
-3.50869e-05
-3.80032e-05
-3.99828e-05
-3.90296e-05
-3.27958e-05
-1.92146e-05
4.40575e-07
2.77023e-05
6.62568e-05
0.000120497
0.000196023
0.00029972
0.000439799
0.000625643
0.000867368
0.00117499
0.00155707
0.00201881
0.00255949
0.0031694
0.00382639
0.00449237
0.00511009
0.00560093
0.00586405
0.00577793
0.00520531
0.0040013
0.00202188
-0.000861797
-0.00474819
-0.00968906
-0.0156737
-0.0226148
-0.0303383
-0.0385755
-0.0469541
-0.0550272
-0.0622717
-0.0681104
-0.0719383
-0.0731472
-0.0711748
-0.06549
-0.0556713
-0.0414067
-0.0225069
0.00108028
0.0292653
0.0618242
0.0984115
0.138575
0.181777
0.227414
0.274847
0.323425
0.372506
0.421477
0.46977
0.51688
0.562368
0.605868
0.647089
0.685816
0.721906
0.755276
0.7859
0.813811
0.839075
0.861799
0.882114
0.900164
0.916112
0.930131
0.942386
0.953047
0.962275
0.970229
0.977054
0.982883
0.987847
0.992044
0.995629
0.998554
1.00132
1.00293
1.00597
1.00626
-2.01086e-11
-6.55471e-12
-2.27519e-12
3.89757e-13
1.85897e-12
2.52836e-12
2.76782e-12
2.77375e-12
2.66039e-12
2.49159e-12
2.30436e-12
2.11918e-12
1.94546e-12
1.78546e-12
1.63881e-12
1.5045e-12
1.38149e-12
1.26892e-12
1.16609e-12
1.07235e-12
9.87097e-13
9.09735e-13
8.3969e-13
7.76394e-13
7.19295e-13
6.67811e-13
6.21261e-13
5.78842e-13
5.39927e-13
5.05066e-13
4.7779e-13
4.65803e-13
4.76817e-13
5.00021e-13
4.63933e-13
1.75731e-13
-7.09399e-13
-2.56027e-12
-5.25928e-12
-7.0551e-12
-2.71256e-12
1.84914e-11
7.31821e-11
1.79283e-10
3.41369e-10
5.20698e-10
5.87614e-10
2.62198e-10
-9.36405e-10
-3.69172e-09
-8.782e-09
-1.67897e-08
-2.75636e-08
-3.94093e-08
-4.80668e-08
-4.56552e-08
-1.99086e-08
4.58386e-08
1.71384e-07
3.76604e-07
6.76317e-07
1.0731e-06
1.54859e-06
2.05453e-06
2.50498e-06
2.77195e-06
2.6864e-06
2.04597e-06
6.30462e-07
-1.77599e-06
-5.35794e-06
-1.02406e-05
-1.64653e-05
-2.39731e-05
-3.26013e-05
-4.20939e-05
-5.21274e-05
-6.2348e-05
-7.24141e-05
-8.2037e-05
-9.1011e-05
-9.9226e-05
-0.00010666
-0.000113351
-0.000119355
-0.000124701
-0.000129352
-0.0001332
-0.000136079
-0.000137826
-0.000138374
-0.000137856
-0.000136709
-0.00013574
-0.000136125
-0.000139316
-0.000146877
-0.000160347
-0.000176387
-0.000195366
-0.000216883
-0.000239912
-0.000262253
-0.000279941
-0.000286546
-0.000272481
-0.00022448
-0.000125501
4.46686e-05
0.000307801
0.000684371
0.00118935
0.00182674
0.00258324
0.00342167
0.00427515
0.00504299
0.0055888
0.00574025
0.00530691
0.00408589
0.00188203
-0.00146955
-0.00607883
-0.0119762
-0.0190907
-0.0272333
-0.0360936
-0.0452142
-0.054034
-0.0618936
-0.0680644
-0.0717884
-0.0723174
-0.0689548
-0.0611038
-0.0482948
-0.0302149
-0.0067262
0.0221257
0.0561146
0.0948475
0.137789
0.184286
0.233601
0.284945
0.337514
0.39052
0.443215
0.494916
0.545023
0.593027
0.638516
0.68118
0.720802
0.757254
0.790493
0.820537
0.847467
0.871411
0.892534
0.911016
0.92707
0.940904
0.952732
0.962764
0.971199
0.978232
0.984042
0.98879
0.992627
0.995683
0.998084
0.999922
1.00133
1.00227
1.00317
1.00311
1.00448
1.00324
8.11197e-11
2.86139e-11
1.11944e-11
1.9551e-13
-6.3069e-12
-9.55387e-12
-1.09441e-11
-1.1268e-11
-1.10092e-11
-1.04482e-11
-9.75401e-12
-9.02848e-12
-8.32842e-12
-7.67424e-12
-7.06922e-12
-6.51136e-12
-5.99731e-12
-5.52395e-12
-5.08877e-12
-4.68959e-12
-4.32438e-12
-3.99108e-12
-3.68765e-12
-3.41202e-12
-3.16211e-12
-2.93587e-12
-2.73135e-12
-2.54667e-12
-2.38001e-12
-2.22944e-12
-2.09223e-12
-1.96345e-12
-1.83432e-12
-1.69339e-12
-1.53748e-12
-1.40195e-12
-1.41438e-12
-1.84965e-12
-3.10925e-12
-5.46509e-12
-8.34323e-12
-8.96989e-12
-5.15355e-13
2.93989e-11
9.77807e-11
2.195e-10
3.90349e-10
5.56409e-10
5.70126e-10
1.41751e-10
-1.19271e-09
-4.05112e-09
-9.08447e-09
-1.67053e-08
-2.66308e-08
-3.7245e-08
-4.48512e-08
-4.29677e-08
-2.19042e-08
3.10827e-08
1.30755e-07
2.91751e-07
5.25282e-07
8.34853e-07
1.21149e-06
1.62926e-06
2.04199e-06
2.38226e-06
2.56338e-06
2.48486e-06
2.04106e-06
1.13243e-06
-3.22417e-07
-2.3752e-06
-5.03925e-06
-8.28485e-06
-1.20394e-05
-1.61921e-05
-2.06025e-05
-2.51095e-05
-2.954e-05
-3.37153e-05
-3.74529e-05
-4.05672e-05
-4.28683e-05
-4.41649e-05
-4.42734e-05
-4.30367e-05
-4.03517e-05
-3.62057e-05
-3.07192e-05
-2.41934e-05
-1.71561e-05
-1.03986e-05
-4.97049e-06
-2.03024e-06
-2.10788e-06
-4.04366e-06
-8.02964e-06
-1.53725e-05
-2.76562e-05
-4.6728e-05
-7.424e-05
-0.000110832
-0.000154853
-0.000200885
-0.000238171
-0.000249347
-0.00021002
-8.97814e-05
0.000144839
0.000525149
0.00107283
0.00179068
0.00265259
0.00359419
0.00450617
0.00523524
0.005573
0.00528621
0.00412541
0.00185131
-0.00173394
-0.00675333
-0.0132226
-0.0210225
-0.0298799
-0.0393575
-0.0488652
-0.0576761
-0.0649606
-0.0698316
-0.0713966
-0.0688124
-0.0613403
-0.0483937
-0.0295758
-0.00470475
0.0261747
0.0627947
0.104681
0.15118
0.201503
0.254757
0.309998
0.366273
0.422657
0.478289
0.5324
0.584327
0.633532
0.679603
0.722247
0.761289
0.79666
0.828383
0.856552
0.881327
0.902912
0.921543
0.937472
0.950964
0.962282
0.971679
0.979398
0.985666
0.990689
0.994656
0.997736
1.00007
1.0018
1.00302
1.00384
1.00433
1.00459
1.00457
1.00466
1.00397
1.0047
1.00304
-3.30337e-10
-1.23304e-10
-5.20714e-11
-6.86613e-12
2.12542e-11
3.62315e-11
4.33605e-11
4.57815e-11
4.55039e-11
4.37294e-11
4.12016e-11
3.83836e-11
3.55724e-11
3.29e-11
3.04037e-11
2.80859e-11
2.59377e-11
2.39485e-11
2.21095e-11
2.04131e-11
1.88527e-11