/*--------------------------------*- C++ -*----------------------------------*\
| =========                 |                                                 |
| \\      /  F ield         | OpenFOAM: The Open Source CFD Toolbox           |
|  \\    /   O peration     | Version:  4.1                                   |
|   \\  /    A nd           | Web:      www.OpenFOAM.org                      |
|    \\/     M anipulation  |                                                 |
\*---------------------------------------------------------------------------*/
FoamFile
{
    version     2.0;
    format      ascii;
    class       volScalarField;
    location    "0.095";
    object      T;
}
// * * * * * * * * * * * * * * * * * * * * * * * * * * * * * * * * * * * * * //

dimensions      [0 0 0 1 0 0 0];

internalField   nonuniform List<scalar> 
12225
(
0.625082
0.501659
0.482429
0.479445
0.478893
0.478746
0.478693
0.478669
0.478656
0.478648
0.478641
0.478631
0.47861
0.478557
0.478424
0.478097
0.477271
0.475226
0.617081
0.498208
0.480748
0.478495
0.478335
0.47841
0.478486
0.478541
0.478578
0.478602
0.478617
0.478621
0.47861
0.478564
0.478441
0.47813
0.477368
0.47551
0.621282
0.500687
0.482151
0.479347
0.478884
0.478769
0.478724
0.4787
0.478685
0.478674
0.478665
0.478654
0.478632
0.478582
0.478462
0.478176
0.477514
0.476046
0.621277
0.500416
0.481761
0.479003
0.478628
0.478587
0.478593
0.478605
0.478616
0.478624
0.478629
0.478627
0.478614
0.478573
0.478468
0.478222
0.477676
0.47655
0.621238
0.500487
0.481847
0.479071
0.47869
0.478643
0.47864
0.478643
0.478646
0.478648
0.478648
0.478643
0.478628
0.47859
0.478498
0.478291
0.477857
0.477024
0.621177
0.50051
0.481888
0.479083
0.478687
0.478637
0.478634
0.478638
0.478641
0.478644
0.478645
0.478641
0.478629
0.478597
0.478521
0.478356
0.478024
0.477426
0.621178
0.500547
0.481941
0.479115
0.478704
0.47865
0.478645
0.478646
0.478649
0.478651
0.478651
0.478648
0.478637
0.47861
0.478549
0.478422
0.478177
0.477759
0.621179
0.500558
0.481969
0.479137
0.478717
0.478659
0.478652
0.478652
0.478654
0.478655
0.478655
0.478652
0.478644
0.478621
0.478572
0.478473
0.478288
0.477983
0.621177
0.500563
0.481988
0.479156
0.478731
0.478669
0.47866
0.478659
0.47866
0.478661
0.47866
0.478657
0.47865
0.478631
0.478592
0.478514
0.478374
0.478148
0.621174
0.500565
0.482002
0.479173
0.478745
0.47868
0.478669
0.478667
0.478667
0.478667
0.478666
0.478663
0.478657
0.478642
0.478612
0.478554
0.478452
0.478291
0.621171
0.500564
0.482012
0.479188
0.478759
0.478692
0.47868
0.478676
0.478675
0.478674
0.478672
0.47867
0.478665
0.478654
0.478632
0.47859
0.47852
0.478411
0.621167
0.500561
0.482017
0.479198
0.478771
0.478704
0.47869
0.478686
0.478684
0.478682
0.47868
0.478678
0.478674
0.478666
0.47865
0.478622
0.478576
0.478506
0.621164
0.500557
0.482019
0.479205
0.47878
0.478714
0.4787
0.478696
0.478692
0.47869
0.478689
0.478686
0.478683
0.478677
0.478667
0.478649
0.47862
0.478579
0.621161
0.500553
0.482019
0.479209
0.478786
0.47872
0.478708
0.478704
0.478701
0.478699
0.478697
0.478695
0.478692
0.478687
0.478681
0.47867
0.478654
0.478631
0.621158
0.500549
0.482017
0.47921
0.478789
0.478725
0.478713
0.47871
0.478708
0.478706
0.478704
0.478702
0.4787
0.478697
0.478692
0.478686
0.478677
0.478666
0.621156
0.500546
0.482015
0.479209
0.47879
0.478728
0.478717
0.478714
0.478712
0.47871
0.478709
0.478708
0.478706
0.478704
0.478701
0.478697
0.478693
0.478687
0.621154
0.500544
0.482013
0.479208
0.47879
0.478728
0.478718
0.478716
0.478714
0.478714
0.478712
0.478711
0.47871
0.478709
0.478707
0.478705
0.478702
0.478699
0.621154
0.500543
0.482012
0.479208
0.47879
0.478728
0.478718
0.478715
0.478714
0.478714
0.478713
0.478713
0.478711
0.47871
0.478708
0.478706
0.478704
0.478704
0.621154
0.500543
0.482012
0.479207
0.478789
0.478728
0.478718
0.478714
0.478712
0.478712
0.47871
0.478709
0.478708
0.478707
0.478706
0.478705
0.478703
0.478703
0.621154
0.500544
0.482012
0.479207
0.478788
0.478725
0.478715
0.478711
0.478709
0.478707
0.478706
0.478705
0.478704
0.478703
0.478702
0.478701
0.4787
0.478701
0.621154
0.500545
0.482014
0.479206
0.478784
0.47872
0.478709
0.478705
0.478703
0.478701
0.478699
0.478698
0.478697
0.478697
0.478696
0.478695
0.478694
0.478695
0.621154
0.500547
0.482015
0.479204
0.47878
0.478714
0.478702
0.478698
0.478696
0.478694
0.478693
0.478692
0.478692
0.478691
0.478691
0.478691
0.478689
0.47869
0.621152
0.500551
0.482014
0.479195
0.478767
0.478701
0.478689
0.478685
0.478684
0.478683
0.478683
0.478682
0.478682
0.478683
0.478682
0.478682
0.478682
0.478683
0.621147
0.500559
0.482014
0.479187
0.478759
0.478694
0.478684
0.478681
0.478681
0.47868
0.47868
0.47868
0.478681
0.478681
0.478681
0.478681
0.478681
0.478682
0.621134
0.500551
0.481983
0.479149
0.478725
0.478665
0.478657
0.478657
0.478658
0.47866
0.478662
0.478664
0.478665
0.478667
0.478669
0.47867
0.478671
0.478673
0.621195
0.500594
0.48198
0.479154
0.478749
0.478696
0.478689
0.478687
0.478686
0.478685
0.478684
0.478682
0.478681
0.47868
0.47868
0.47868
0.478679
0.47868
0.621276
0.500532
0.481808
0.478971
0.478582
0.478548
0.478561
0.47858
0.478597
0.478611
0.478622
0.478631
0.478639
0.478645
0.478651
0.478655
0.478659
0.478661
0.621626
0.501078
0.482445
0.479563
0.479064
0.478923
0.47885
0.478804
0.478771
0.478747
0.47873
0.478716
0.478707
0.4787
0.478695
0.478691
0.47869
0.478684
0.617042
0.497852
0.480426
0.478232
0.478138
0.478261
0.478372
0.478454
0.478512
0.478553
0.478582
0.478604
0.47862
0.478632
0.478642
0.47865
0.478659
0.478657
0.625111
0.502056
0.482622
0.479575
0.479005
0.478839
0.47877
0.478733
0.478711
0.478697
0.478687
0.47868
0.478676
0.478673
0.478671
0.478671
0.478674
0.478662
0.377117
0.377118
0.377097
0.377073
0.377052
0.377027
0.377002
0.376975
0.376945
0.376915
0.376885
0.376856
0.376826
0.376797
0.376768
0.37674
0.376713
0.376688
0.376666
0.376646
0.376629
0.376616
0.376607
0.376602
0.376603
0.376609
0.376621
0.37664
0.376666
0.376699
0.37674
0.376789
0.376846
0.376912
0.376988
0.377073
0.377167
0.377272
0.377386
0.377511
0.377646
0.377792
0.377948
0.378114
0.378291
0.378479
0.378676
0.378884
0.379102
0.37933
0.379568
0.379815
0.380072
0.380337
0.380611
0.380893
0.381182
0.381479
0.381783
0.382094
0.38241
0.382732
0.38306
0.383392
0.383729
0.384069
0.384413
0.38476
0.38511
0.385462
0.385816
0.386171
0.386527
0.386885
0.387242
0.3876
0.387957
0.388314
0.38867
0.389025
0.389379
0.389731
0.390081
0.390429
0.390775
0.391119
0.39146
0.391798
0.392133
0.392465
0.392793
0.393118
0.39344
0.393757
0.394071
0.39438
0.394686
0.394987
0.395284
0.395576
0.395863
0.396146
0.396425
0.396698
0.396967
0.397231
0.39749
0.397744
0.397994
0.398238
0.398478
0.398713
0.398943
0.399168
0.399388
0.399603
0.399813
0.400018
0.400218
0.400413
0.400602
0.400787
0.400966
0.40114
0.401308
0.401471
0.401629
0.401781
0.401927
0.402068
0.402203
0.402332
0.402456
0.402574
0.402685
0.402791
0.402891
0.402984
0.403072
0.403153
0.403228
0.403297
0.403359
0.403415
0.403464
0.403506
0.403542
0.403571
0.403594
0.40361
0.403619
0.403622
0.403618
0.403606
0.403589
0.403564
0.403532
0.403495
0.403449
0.403398
0.403338
0.403272
0.403204
0.403113
0.403015
0.402911
0.402786
0.402656
0.402522
0.402382
0.402236
0.402085
0.401929
0.401767
0.401601
0.401427
0.40126
0.401051
0.400992
0.400161
0.377402
0.377394
0.37739
0.377382
0.377372
0.37736
0.377345
0.377328
0.377306
0.37728
0.377252
0.377222
0.377192
0.37716
0.377129
0.377099
0.377069
0.377042
0.377016
0.376993
0.376973
0.376957
0.376946
0.376938
0.376936
0.37694
0.37695
0.376966
0.376989
0.37702
0.377058
0.377104
0.37716
0.377223
0.377296
0.377379
0.377471
0.377573
0.377685
0.377808
0.37794
0.378083
0.378237
0.378401
0.378576
0.378761
0.378956
0.379162
0.379378
0.379604
0.379839
0.380084
0.380337
0.3806
0.380871
0.381151
0.381438
0.381732
0.382033
0.382341
0.382655
0.382975
0.3833
0.383629
0.383963
0.384301
0.384643
0.384987
0.385334
0.385684
0.386035
0.386388
0.386741
0.387096
0.387451
0.387806
0.38816
0.388515
0.388868
0.38922
0.389571
0.389921
0.390268
0.390614
0.390957
0.391297
0.391635
0.391971
0.392303
0.392631
0.392957
0.393278
0.393596
0.393911
0.394221
0.394527
0.394828
0.395126
0.395419
0.395707
0.39599
0.39627
0.396544
0.396814
0.397079
0.397339
0.397594
0.397844
0.39809
0.39833
0.398566
0.398796
0.399022
0.399243
0.399459
0.399669
0.399875
0.400075
0.400271
0.400461
0.400646
0.400826
0.401
0.401169
0.401333
0.401491
0.401644
0.401791
0.401932
0.402068
0.402198
0.402323
0.402441
0.402554
0.402661
0.402761
0.402856
0.402944
0.403027
0.403103
0.403172
0.403236
0.403293
0.403343
0.403387
0.403424
0.403455
0.403478
0.403496
0.403506
0.40351
0.403506
0.403497
0.403479
0.403456
0.403425
0.403387
0.403342
0.40329
0.403232
0.403164
0.40309
0.403014
0.402921
0.402826
0.40273
0.402621
0.402505
0.402383
0.402255
0.40212
0.40198
0.401833
0.401681
0.401525
0.401363
0.401207
0.401021
0.400935
0.400372
0.377993
0.37796
0.377944
0.377932
0.37792
0.377904
0.377884
0.37786
0.377833
0.377803
0.377771
0.377737
0.377703
0.377668
0.377634
0.3776
0.377568
0.377537
0.377509
0.377483
0.377461
0.377442
0.377428
0.377418
0.377413
0.377415
0.377422
0.377435
0.377456
0.377484
0.37752
0.377563
0.377615
0.377676
0.377746
0.377826
0.377914
0.378013
0.378122
0.378241
0.37837
0.378509
0.378659
0.378819
0.37899
0.379171
0.379363
0.379564
0.379776
0.379998
0.380229
0.380469
0.380719
0.380978
0.381245
0.38152
0.381803
0.382093
0.38239
0.382694
0.383005
0.38332
0.383641
0.383968
0.384298
0.384632
0.38497
0.385312
0.385656
0.386002
0.38635
0.3867
0.387051
0.387403
0.387755
0.388108
0.38846
0.388812
0.389164
0.389514
0.389864
0.390211
0.390557
0.390902
0.391244
0.391583
0.391921
0.392255
0.392586
0.392915
0.39324
0.393561
0.393879
0.394193
0.394503
0.394809
0.395111
0.395409
0.395702
0.395991
0.396275
0.396555
0.396829
0.3971
0.397365
0.397626
0.397882
0.398133
0.398379
0.39862
0.398856
0.399087
0.399314
0.399535
0.399751
0.399963
0.400169
0.40037
0.400566
0.400757
0.400942
0.401122
0.401297
0.401466
0.40163
0.401788
0.401941
0.402088
0.40223
0.402366
0.402496
0.40262
0.402738
0.40285
0.402957
0.403057
0.403151
0.403238
0.40332
0.403395
0.403464
0.403526
0.403582
0.403631
0.403673
0.403709
0.403738
0.403761
0.403776
0.403785
0.403786
0.403781
0.403769
0.403749
0.403723
0.40369
0.403649
0.403601
0.403546
0.403485
0.403416
0.403339
0.403259
0.403166
0.403071
0.402974
0.402868
0.402754
0.402634
0.402507
0.402374
0.402235
0.402089
0.401938
0.401783
0.401621
0.401463
0.401278
0.401166
0.400751
0.378853
0.3788
0.378774
0.378758
0.378739
0.378716
0.378689
0.378659
0.378626
0.378591
0.378554
0.378516
0.378478
0.378439
0.3784
0.378362
0.378326
0.378291
0.378259
0.378229
0.378203
0.37818
0.378161
0.378147
0.378139
0.378135
0.378138
0.378147
0.378163
0.378186
0.378217
0.378256
0.378303
0.378359
0.378423
0.378497
0.378581
0.378674
0.378777
0.378889
0.379013
0.379146
0.37929
0.379444
0.379608
0.379783
0.379968
0.380163
0.380368
0.380583
0.380807
0.381041
0.381284
0.381536
0.381797
0.382065
0.382342
0.382626
0.382917
0.383214
0.383518
0.383828
0.384143
0.384464
0.384788
0.385117
0.38545
0.385786
0.386125
0.386466
0.38681
0.387155
0.387502
0.387849
0.388198
0.388547
0.388896
0.389245
0.389593
0.389941
0.390288
0.390633
0.390977
0.39132
0.39166
0.391999
0.392335
0.392668
0.392999
0.393327
0.393652
0.393974
0.394292
0.394607
0.394918
0.395225
0.395528
0.395827
0.396122
0.396412
0.396698
0.39698
0.397257
0.397529
0.397797
0.39806
0.398318
0.398571
0.39882
0.399063
0.399302
0.399536
0.399765
0.399989
0.400208
0.400421
0.40063
0.400834
0.401032
0.401225
0.401413
0.401596
0.401773
0.401945
0.402111
0.402272
0.402427
0.402576
0.40272
0.402857
0.402989
0.403115
0.403235
0.403349
0.403456
0.403558
0.403653
0.403742
0.403825
0.403901
0.40397
0.404033
0.404089
0.404139
0.404181
0.404217
0.404246
0.404268
0.404283
0.404292
0.404293
0.404287
0.404274
0.404253
0.404226
0.404191
0.404149
0.404101
0.404044
0.403982
0.403911
0.403833
0.40375
0.403658
0.403561
0.40346
0.403351
0.403236
0.403113
0.402984
0.402849
0.402707
0.402559
0.402406
0.402247
0.402082
0.401917
0.401727
0.401598
0.401257
0.379974
0.37991
0.379877
0.379856
0.379832
0.379804
0.379771
0.379735
0.379696
0.379656
0.379613
0.37957
0.379525
0.379481
0.379437
0.379393
0.379351
0.379311
0.379273
0.379238
0.379206
0.379177
0.379153
0.379134
0.379119
0.37911
0.379107
0.37911
0.379119
0.379136
0.379161
0.379193
0.379233
0.379282
0.37934
0.379406
0.379482
0.379568
0.379663
0.379768
0.379884
0.380009
0.380144
0.38029
0.380446
0.380612
0.380789
0.380975
0.381172
0.381378
0.381594
0.381819
0.382053
0.382296
0.382548
0.382808
0.383076
0.383351
0.383634
0.383923
0.384219
0.384521
0.384828
0.38514
0.385458
0.385779
0.386105
0.386434
0.386766
0.387101
0.387438
0.387777
0.388118
0.38846
0.388803
0.389147
0.389492
0.389836
0.39018
0.390524
0.390867
0.39121
0.391551
0.391891
0.392229
0.392565
0.3929
0.393232
0.393562
0.393889
0.394214
0.394536
0.394854
0.395169
0.395481
0.395789
0.396094
0.396394
0.39669
0.396982
0.39727
0.397554
0.397833
0.398108
0.398378
0.398644
0.398905
0.399161
0.399412
0.399659
0.3999
0.400137
0.400369
0.400596
0.400818
0.401035
0.401247
0.401454
0.401655
0.401851
0.402042
0.402228
0.402408
0.402583
0.402752
0.402915
0.403073
0.403225
0.403371
0.403511
0.403645
0.403773
0.403895
0.404011
0.40412
0.404224
0.40432
0.404411
0.404494
0.404572
0.404642
0.404706
0.404763
0.404812
0.404855
0.404892
0.404921
0.404942
0.404957
0.404965
0.404965
0.404959
0.404945
0.404923
0.404895
0.404859
0.404816
0.404766
0.404708
0.404643
0.404571
0.404491
0.404405
0.404311
0.404212
0.404107
0.403995
0.403877
0.403751
0.403619
0.403481
0.403336
0.403185
0.403027
0.402865
0.402695
0.402524
0.402329
0.402192
0.401883
0.381368
0.381298
0.38126
0.381235
0.381207
0.381173
0.381134
0.381092
0.381048
0.381
0.380952
0.380901
0.380851
0.3808
0.380749
0.380699
0.38065
0.380603
0.380558
0.380516
0.380477
0.380442
0.380411
0.380384
0.380362
0.380345
0.380335
0.38033
0.380332
0.380341
0.380357
0.380381
0.380413
0.380453
0.380502
0.38056
0.380627
0.380703
0.380789
0.380884
0.38099
0.381105
0.381231
0.381366
0.381512
0.381667
0.381833
0.382009
0.382195
0.38239
0.382595
0.38281
0.383033
0.383266
0.383507
0.383756
0.384013
0.384278
0.38455
0.384829
0.385115
0.385407
0.385704
0.386007
0.386315
0.386627
0.386943
0.387264
0.387587
0.387914
0.388243
0.388574
0.388908
0.389243
0.389579
0.389917
0.390255
0.390593
0.390932
0.391271
0.391609
0.391947
0.392284
0.39262
0.392955
0.393289
0.393621
0.393951
0.394279
0.394605
0.394929
0.39525
0.395568
0.395883
0.396195
0.396504
0.396809
0.397111
0.397408
0.397702
0.397992
0.398278
0.398559
0.398836
0.399109
0.399377
0.39964
0.399899
0.400154
0.400403
0.400648
0.400888
0.401123
0.401353
0.401579
0.401799
0.402014
0.402224
0.402429
0.402628
0.402822
0.403011
0.403194
0.403372
0.403544
0.40371
0.403871
0.404025
0.404174
0.404317
0.404453
0.404584
0.404708
0.404825
0.404937
0.405042
0.40514
0.405232
0.405317
0.405395
0.405466
0.405531
0.405588
0.405638
0.405681
0.405718
0.405746
0.405768
0.405782
0.405789
0.405788
0.405781
0.405766
0.405743
0.405713
0.405676
0.40563
0.405578
0.405518
0.405451
0.405376
0.405294
0.405205
0.405109
0.405006
0.404898
0.404783
0.40466
0.404532
0.404396
0.404254
0.404105
0.403951
0.403789
0.403622
0.403447
0.403272
0.403072
0.402928
0.402628
0.383042
0.382973
0.382932
0.382903
0.38287
0.382831
0.382787
0.382739
0.382688
0.382634
0.382578
0.38252
0.382462
0.382403
0.382345
0.382287
0.38223
0.382175
0.382123
0.382072
0.382025
0.381981
0.381942
0.381906
0.381876
0.38185
0.38183
0.381817
0.381809
0.381809
0.381815
0.381829
0.381851
0.381881
0.381919
0.381966
0.382022
0.382088
0.382162
0.382246
0.38234
0.382444
0.382557
0.38268
0.382814
0.382957
0.383111
0.383274
0.383447
0.38363
0.383822
0.384023
0.384234
0.384454
0.384682
0.384919
0.385163
0.385416
0.385675
0.385942
0.386216
0.386495
0.386781
0.387072
0.387369
0.38767
0.387975
0.388285
0.388598
0.388914
0.389234
0.389556
0.38988
0.390206
0.390534
0.390863
0.391194
0.391525
0.391857
0.392189
0.392521
0.392853
0.393185
0.393516
0.393846
0.394176
0.394504
0.394831
0.395156
0.39548
0.395801
0.396121
0.396438
0.396753
0.397064
0.397373
0.397679
0.397981
0.398279
0.398574
0.398866
0.399153
0.399436
0.399715
0.39999
0.40026
0.400526
0.400788
0.401045
0.401297
0.401545
0.401788
0.402026
0.402259
0.402487
0.402711
0.402929
0.403142
0.40335
0.403553
0.40375
0.403942
0.404128
0.404309
0.404484
0.404653
0.404816
0.404974
0.405125
0.40527
0.405409
0.405542
0.405668
0.405788
0.405901
0.406007
0.406107
0.4062
0.406286
0.406365
0.406438
0.406503
0.40656
0.406611
0.406654
0.40669
0.406718
0.406739
0.406752
0.406759
0.406757
0.406748
0.406731
0.406707
0.406675
0.406635
0.406588
0.406533
0.40647
0.4064
0.406322
0.406237
0.406145
0.406046
0.40594
0.405828
0.405708
0.405582
0.40545
0.40531
0.405164
0.405011
0.404852
0.404687
0.404515
0.404335
0.404154
0.403949
0.4038
0.403497
0.385019
0.38495
0.384907
0.384873
0.384835
0.38479
0.38474
0.384685
0.384627
0.384566
0.384502
0.384436
0.38437
0.384303
0.384235
0.384169
0.384103
0.384039
0.383977
0.383917
0.38386
0.383807
0.383757
0.383711
0.38367
0.383635
0.383604
0.38358
0.383561
0.38355
0.383545
0.383547
0.383558
0.383576
0.383602
0.383636
0.38368
0.383732
0.383794
0.383865
0.383945
0.384035
0.384134
0.384244
0.384363
0.384492
0.384631
0.38478
0.384939
0.385107
0.385284
0.385471
0.385667
0.385872
0.386085
0.386307
0.386537
0.386775
0.387021
0.387273
0.387532
0.387798
0.38807
0.388347
0.38863
0.388918
0.389211
0.389508
0.389809
0.390113
0.390421
0.390731
0.391045
0.39136
0.391678
0.391997
0.392318
0.39264
0.392963
0.393286
0.39361
0.393935
0.39426
0.394584
0.394909
0.395233
0.395556
0.395878
0.396199
0.396519
0.396838
0.397155
0.397469
0.397782
0.398092
0.3984
0.398705
0.399007
0.399305
0.399601
0.399893
0.400181
0.400465
0.400745
0.401021
0.401293
0.401561
0.401825
0.402084
0.402339
0.402589
0.402834
0.403075
0.403311
0.403542
0.403768
0.403989
0.404205
0.404416
0.404622
0.404822
0.405017
0.405206
0.405389
0.405567
0.405739
0.405905
0.406065
0.406218
0.406366
0.406507
0.406642
0.40677
0.406891
0.407006
0.407114
0.407215
0.40731
0.407397
0.407476
0.407549
0.407615
0.407673
0.407723
0.407766
0.407801
0.407829
0.407849
0.407862
0.407867
0.407863
0.407852
0.407834
0.407807
0.407773
0.407731
0.407681
0.407623
0.407557
0.407484
0.407403
0.407315
0.407219
0.407116
0.407006
0.40689
0.406766
0.406636
0.406499
0.406355
0.406205
0.406047
0.405884
0.405713
0.405537
0.405351
0.405165
0.404955
0.4048
0.40449
0.387311
0.387243
0.387197
0.387158
0.387114
0.387063
0.387006
0.386944
0.386878
0.386809
0.386736
0.386662
0.386586
0.386509
0.386432
0.386355
0.386279
0.386205
0.386132
0.386061
0.385993
0.385928
0.385867
0.38581
0.385758
0.38571
0.385667
0.385631
0.3856
0.385575
0.385558
0.385547
0.385544
0.385548
0.38556
0.385581
0.38561
0.385648
0.385695
0.385751
0.385816
0.38589
0.385975
0.386068
0.386172
0.386285
0.386408
0.38654
0.386682
0.386834
0.386994
0.387165
0.387344
0.387532
0.387729
0.387934
0.388147
0.388369
0.388598
0.388834
0.389077
0.389326
0.389582
0.389844
0.390112
0.390384
0.390662
0.390944
0.391231
0.391521
0.391815
0.392112
0.392412
0.392714
0.39302
0.393327
0.393636
0.393947
0.394259
0.394572
0.394887
0.395202
0.395518
0.395834
0.39615
0.396467
0.396783
0.397099
0.397415
0.39773
0.398043
0.398356
0.398667
0.398976
0.399284
0.399589
0.399892
0.400192
0.40049
0.400784
0.401075
0.401363
0.401647
0.401927
0.402204
0.402477
0.402746
0.40301
0.403271
0.403527
0.403779
0.404026
0.404268
0.404506
0.404739
0.404968
0.405191
0.405409
0.405623
0.405831
0.406033
0.40623
0.406422
0.406607
0.406787
0.406962
0.40713
0.407292
0.407447
0.407597
0.40774
0.407876
0.408006
0.408129
0.408245
0.408354
0.408456
0.408551
0.408639
0.408719
0.408792
0.408858
0.408916
0.408966
0.409008
0.409043
0.40907
0.409089
0.4091
0.409103
0.409098
0.409086
0.409065
0.409036
0.408999
0.408954
0.408901
0.40884
0.408771
0.408694
0.40861
0.408518
0.408418
0.408311
0.408197
0.408076
0.407948
0.407813
0.407671
0.407522
0.407367
0.407205
0.407037
0.406861
0.406679
0.406489
0.406296
0.406081
0.40592
0.405602
0.389934
0.389867
0.389818
0.389773
0.389722
0.389664
0.3896
0.38953
0.389455
0.389376
0.389294
0.38921
0.389124
0.389036
0.388948
0.38886
0.388772
0.388685
0.3886
0.388517
0.388437
0.388359
0.388285
0.388215
0.388149
0.388088
0.388032
0.387981
0.387936
0.387897
0.387865
0.387839
0.387821
0.38781
0.387807
0.387812
0.387825
0.387847
0.387877
0.387916
0.387965
0.388022
0.388089
0.388165
0.388251
0.388346
0.388451
0.388566
0.388689
0.388822
0.388965
0.389116
0.389277
0.389447
0.389625
0.389811
0.390006
0.390208
0.390419
0.390636
0.390861
0.391093
0.39133
0.391574
0.391824
0.39208
0.39234
0.392605
0.392875
0.393149
0.393426
0.393708
0.393992
0.39428
0.394571
0.394864
0.395159
0.395456
0.395755
0.396056
0.396359
0.396662
0.396967
0.397273
0.397579
0.397886
0.398194
0.398501
0.398809
0.399116
0.399423
0.39973
0.400035
0.400339
0.400642
0.400943
0.401242
0.401539
0.401834
0.402126
0.402415
0.402701
0.402983
0.403262
0.403538
0.40381
0.404079
0.404343
0.404603
0.40486
0.405112
0.40536
0.405603
0.405842
0.406076
0.406306
0.40653
0.40675
0.406964
0.407174
0.407378
0.407576
0.407769
0.407957
0.408138
0.408314
0.408484
0.408647
0.408804
0.408955
0.409099
0.409237
0.409368
0.409491
0.409608
0.409719
0.409821
0.409917
0.410005
0.410085
0.410158
0.410223
0.410281
0.41033
0.410372
0.410405
0.410431
0.410449
0.410458
0.410459
0.410452
0.410437
0.410414
0.410382
0.410342
0.410294
0.410238
0.410174
0.410101
0.410021
0.409932
0.409836
0.409732
0.409621
0.409502
0.409376
0.409243
0.409103
0.408957
0.408803
0.408643
0.408475
0.408302
0.408121
0.407934
0.407738
0.40754
0.407319
0.407152
0.406825
0.392905
0.392839
0.392785
0.392733
0.392676
0.39261
0.392536
0.392457
0.392373
0.392283
0.392191
0.392095
0.391997
0.391897
0.391796
0.391695
0.391594
0.391494
0.391395
0.391298
0.391204
0.391112
0.391023
0.390938
0.390857
0.39078
0.390709
0.390642
0.390582
0.390527
0.390478
0.390436
0.390402
0.390374
0.390354
0.390341
0.390337
0.390341
0.390353
0.390374
0.390404
0.390443
0.390491
0.390548
0.390614
0.39069
0.390775
0.390869
0.390973
0.391086
0.391208
0.391339
0.391479
0.391628
0.391785
0.391951
0.392125
0.392307
0.392497
0.392694
0.392898
0.393109
0.393326
0.39355
0.39378
0.394016
0.394256
0.394502
0.394753
0.395008
0.395267
0.39553
0.395797
0.396067
0.396341
0.396617
0.396896
0.397177
0.397461
0.397747
0.398035
0.398324
0.398616
0.398908
0.399202
0.399498
0.399794
0.40009
0.400388
0.400686
0.400984
0.401282
0.401579
0.401876
0.402172
0.402466
0.40276
0.403051
0.403341
0.403628
0.403913
0.404195
0.404474
0.40475
0.405023
0.405293
0.405559
0.405821
0.40608
0.406335
0.406586
0.406833
0.407076
0.407314
0.407548
0.407777
0.408002
0.408222
0.408436
0.408646
0.40885
0.409049
0.409243
0.409431
0.409613
0.409789
0.409959
0.410123
0.410281
0.410432
0.410577
0.410715
0.410846
0.410971
0.411088
0.411198
0.4113
0.411396
0.411483
0.411563
0.411635
0.4117
0.411756
0.411805
0.411845
0.411878
0.411902
0.411917
0.411925
0.411924
0.411914
0.411897
0.41187
0.411836
0.411793
0.411741
0.411682
0.411614
0.411537
0.411453
0.41136
0.411259
0.411151
0.411035
0.410912
0.410781
0.410643
0.410498
0.410346
0.410187
0.410021
0.409849
0.40967
0.409484
0.409291
0.40909
0.408886
0.40866
0.408487
0.408152
0.396243
0.396175
0.396117
0.396057
0.395991
0.395916
0.395833
0.395743
0.395647
0.395546
0.395441
0.395332
0.39522
0.395107
0.394991
0.394876
0.39476
0.394644
0.39453
0.394417
0.394306
0.394198
0.394093
0.393991
0.393893
0.3938
0.393711
0.393627
0.393549
0.393477
0.39341
0.39335
0.393297
0.393251
0.393212
0.393181
0.393157
0.393141
0.393134
0.393135
0.393145
0.393163
0.393191
0.393227
0.393272
0.393327
0.39339
0.393463
0.393545
0.393636
0.393735
0.393844
0.393962
0.394088
0.394223
0.394366
0.394517
0.394676
0.394843
0.395017
0.395198
0.395386
0.395581
0.395783
0.39599
0.396203
0.396422
0.396646
0.396875
0.397109
0.397347
0.397589
0.397836
0.398086
0.398339
0.398596
0.398856
0.399119
0.399385
0.399653
0.399923
0.400196
0.400471
0.400748
0.401027
0.401307
0.401589
0.401873
0.402157
0.402443
0.402729
0.403016
0.403303
0.403589
0.403876
0.404161
0.404446
0.40473
0.405012
0.405292
0.40557
0.405846
0.406119
0.40639
0.406658
0.406923
0.407185
0.407444
0.407699
0.407951
0.408199
0.408443
0.408683
0.408919
0.409151
0.409378
0.409601
0.409819
0.410033
0.410241
0.410444
0.410642
0.410835
0.411022
0.411204
0.411379
0.411549
0.411713
0.41187
0.412021
0.412165
0.412302
0.412433
0.412556
0.412673
0.412782
0.412884
0.412978
0.413065
0.413144
0.413215
0.413278
0.413333
0.41338
0.413418
0.413449
0.413471
0.413484
0.413489
0.413486
0.413474
0.413453
0.413424
0.413386
0.413339
0.413284
0.413221
0.413149
0.413068
0.412979
0.412882
0.412777
0.412664
0.412543
0.412415
0.412279
0.412136
0.411986
0.411829
0.411664
0.411493
0.411315
0.411131
0.41094
0.410742
0.410535
0.410326
0.410094
0.409915
0.409573
0.399965
0.399897
0.399832
0.399764
0.399687
0.399601
0.399507
0.399404
0.399295
0.39918
0.39906
0.398936
0.398809
0.398679
0.398547
0.398415
0.398281
0.398148
0.398016
0.397885
0.397756
0.39763
0.397506
0.397386
0.39727
0.397157
0.397049
0.396947
0.396849
0.396757
0.396671
0.396592
0.396518
0.396452
0.396393
0.396341
0.396297
0.39626
0.396232
0.396211
0.396199
0.396196
0.396201
0.396215
0.396237
0.396269
0.396309
0.396358
0.396416
0.396483
0.396559
0.396643
0.396736
0.396838
0.396948
0.397066
0.397192
0.397326
0.397468
0.397617
0.397773
0.397936
0.398106
0.398282
0.398465
0.398653
0.398847
0.399047
0.399251
0.399461
0.399675
0.399894
0.400117
0.400344
0.400575
0.400809
0.401047
0.401289
0.401533
0.40178
0.402031
0.402284
0.40254
0.402798
0.403058
0.403321
0.403586
0.403853
0.404121
0.404392
0.404663
0.404936
0.405209
0.405482
0.405756
0.40603
0.406304
0.406577
0.406848
0.407118
0.407387
0.407654
0.407919
0.408182
0.408442
0.4087
0.408955
0.409208
0.409457
0.409703
0.409945
0.410185
0.41042
0.410652
0.410879
0.411103
0.411322
0.411537
0.411747
0.411953
0.412153
0.412349
0.412539
0.412724
0.412903
0.413077
0.413245
0.413406
0.413562
0.413711
0.413853
0.413989
0.414118
0.41424
0.414355
0.414462
0.414562
0.414655
0.414739
0.414816
0.414886
0.414947
0.415
0.415044
0.41508
0.415108
0.415128
0.415138
0.415141
0.415134
0.415119
0.415095
0.415062
0.415021
0.414971
0.414912
0.414844
0.414768
0.414683
0.41459
0.414488
0.414378
0.414261
0.414135
0.414001
0.41386
0.413712
0.413556
0.413394
0.413224
0.413048
0.412864
0.412674
0.412478
0.412274
0.412063
0.411848
0.411612
0.411426
0.411079
0.404096
0.404024
0.403952
0.403873
0.403785
0.403686
0.403577
0.40346
0.403335
0.403204
0.403066
0.402924
0.402778
0.402629
0.402478
0.402326
0.402172
0.402019
0.401867
0.401715
0.401566
0.401419
0.401275
0.401134
0.400996
0.400863
0.400734
0.40061
0.400492
0.400379
0.400271
0.40017
0.400075
0.399987
0.399906
0.399832
0.399765
0.399706
0.399655
0.399612
0.399576
0.399549
0.39953
0.39952
0.399518
0.399525
0.39954
0.399564
0.399597
0.399638
0.399687
0.399745
0.399812
0.399887
0.39997
0.400061
0.40016
0.400266
0.40038
0.400502
0.40063
0.400766
0.400908
0.401056
0.401211
0.401372
0.401539
0.401711
0.401888
0.402071
0.402258
0.40245
0.402647
0.402848
0.403053
0.403262
0.403475
0.403692
0.403912
0.404136
0.404362
0.404592
0.404826
0.405062
0.405301
0.405543
0.405787
0.406034
0.406284
0.406535
0.406788
0.407043
0.407299
0.407556
0.407815
0.408074
0.408333
0.408591
0.408849
0.409106
0.409363
0.409618
0.409871
0.410123
0.410373
0.410621
0.410866
0.41111
0.41135
0.411588
0.411823
0.412055
0.412283
0.412508
0.412729
0.412947
0.41316
0.413369
0.413575
0.413775
0.413971
0.414162
0.414348
0.414529
0.414704
0.414874
0.415038
0.415196
0.415348
0.415494
0.415633
0.415766
0.415892
0.416011
0.416123
0.416228
0.416325
0.416415
0.416497
0.416571
0.416637
0.416696
0.416746
0.416787
0.41682
0.416845
0.416861
0.416869
0.416868
0.416858
0.416839
0.416811
0.416775
0.41673
0.416675
0.416612
0.416541
0.41646
0.416371
0.416273
0.416167
0.416052
0.415929
0.415799
0.41566
0.415514
0.41536
0.415199
0.415031
0.414856
0.414674
0.414485
0.41429
0.414088
0.41388
0.413663
0.413444
0.413202
0.413011
0.41266
0.408658
0.408582
0.4085
0.408409
0.408306
0.408191
0.408065
0.407929
0.407785
0.407633
0.407474
0.40731
0.407142
0.40697
0.406796
0.40662
0.406444
0.406267
0.406092
0.405917
0.405744
0.405574
0.405406
0.405242
0.405082
0.404926
0.404774
0.404627
0.404485
0.404349
0.404219
0.404094
0.403976
0.403865
0.40376
0.403662
0.403571
0.403488
0.403412
0.403344
0.403284
0.403231
0.403187
0.403151
0.403123
0.403103
0.403091
0.403088
0.403093
0.403106
0.403128
0.403158
0.403195
0.403241
0.403295
0.403356
0.403426
0.403502
0.403586
0.403677
0.403776
0.403881
0.403992
0.40411
0.404235
0.404365
0.404501
0.404643
0.40479
0.404943
0.405101
0.405263
0.40543
0.405602
0.405778
0.405959
0.406143
0.406332
0.406524
0.406721
0.406921
0.407124
0.407332
0.407542
0.407756
0.407974
0.408194
0.408418
0.408644
0.408874
0.409105
0.409338
0.409574
0.409812
0.410051
0.410291
0.410531
0.410772
0.411013
0.411254
0.411495
0.411734
0.411973
0.412211
0.412447
0.412682
0.412915
0.413146
0.413375
0.413602
0.413826
0.414048
0.414266
0.414482
0.414694
0.414903
0.415108
0.41531
0.415507
0.415701
0.415889
0.416074
0.416253
0.416428
0.416597
0.416762
0.41692
0.417073
0.41722
0.417361
0.417496
0.417624
0.417746
0.417861
0.417968
0.418069
0.418163
0.418248
0.418326
0.418397
0.418459
0.418514
0.41856
0.418598
0.418628
0.418649
0.418661
0.418665
0.41866
0.418646
0.418623
0.418591
0.418551
0.418501
0.418443
0.418375
0.418299
0.418214
0.41812
0.418017
0.417906
0.417787
0.417659
0.417523
0.417379
0.417228
0.417069
0.416903
0.416729
0.416549
0.416362
0.416168
0.415967
0.41576
0.415546
0.415325
0.415101
0.414855
0.414659
0.414304
0.413679
0.413596
0.413502
0.413395
0.413274
0.413139
0.412991
0.412832
0.412662
0.412484
0.412299
0.412108
0.411913
0.411714
0.411512
0.411309
0.411105
0.410902
0.410699
0.410498
0.410299
0.410102
0.409909
0.409719
0.409533
0.409352
0.409175
0.409003
0.408836
0.408674
0.408519
0.408369
0.408226
0.408089
0.407959
0.407836
0.407719
0.40761
0.407508
0.407413