/*--------------------------------*- C++ -*----------------------------------*\
| =========                 |                                                 |
| \\      /  F ield         | OpenFOAM: The Open Source CFD Toolbox           |
|  \\    /   O peration     | Version:  4.1                                   |
|   \\  /    A nd           | Web:      www.OpenFOAM.org                      |
|    \\/     M anipulation  |                                                 |
\*---------------------------------------------------------------------------*/
FoamFile
{
    version     2.0;
    format      ascii;
    class       volScalarField;
    location    "0.035";
    object      T;
}
// * * * * * * * * * * * * * * * * * * * * * * * * * * * * * * * * * * * * * //

dimensions      [0 0 0 1 0 0 0];

internalField   nonuniform List<scalar> 
12225
(
0.625082
0.501659
0.482429
0.479445
0.478893
0.478746
0.478693
0.478669
0.478655
0.478645
0.478632
0.478606
0.478543
0.478382
0.47798
0.476985
0.474494
0.46809
0.617081
0.498208
0.480748
0.478495
0.478335
0.47841
0.478486
0.478541
0.478577
0.478599
0.478608
0.478597
0.478544
0.478395
0.478012
0.477067
0.474761
0.469167
0.621282
0.500687
0.482151
0.479347
0.478884
0.478769
0.478724
0.4787
0.478684
0.478671
0.478657
0.478631
0.47857
0.478422
0.478061
0.477197
0.475189
0.470747
0.621277
0.500416
0.481761
0.479003
0.478628
0.478587
0.478593
0.478605
0.478615
0.478621
0.478621
0.478605
0.478555
0.478425
0.478104
0.477353
0.475691
0.472303
0.621238
0.500487
0.481847
0.479071
0.47869
0.478643
0.47864
0.478643
0.478645
0.478645
0.47864
0.478623
0.478575
0.478457
0.478177
0.477549
0.476229
0.47373
0.621177
0.50051
0.481888
0.479083
0.478687
0.478637
0.478634
0.478637
0.47864
0.478641
0.478638
0.478623
0.478582
0.478482
0.478249
0.477745
0.476739
0.474943
0.621178
0.500547
0.481941
0.479115
0.478704
0.47865
0.478644
0.478646
0.478648
0.478649
0.478645
0.478632
0.478597
0.478513
0.478326
0.477939
0.477199
0.47594
0.621179
0.500558
0.481969
0.479137
0.478717
0.478659
0.478652
0.478652
0.478653
0.478653
0.47865
0.478639
0.478609
0.47854
0.478389
0.478087
0.47753
0.476609
0.621177
0.500563
0.481988
0.479156
0.478731
0.478669
0.47866
0.478659
0.478659
0.478659
0.478655
0.478645
0.47862
0.478563
0.478443
0.478207
0.477784
0.477101
0.621174
0.500565
0.482002
0.479173
0.478745
0.47868
0.478669
0.478667
0.478666
0.478665
0.478661
0.478653
0.478633
0.478588
0.478495
0.478319
0.478012
0.477527
0.621171
0.500564
0.482012
0.479188
0.478759
0.478692
0.47868
0.478676
0.478675
0.478673
0.478669
0.478662
0.478646
0.478613
0.478545
0.47842
0.478208
0.477879
0.621167
0.500561
0.482017
0.479198
0.478771
0.478704
0.47869
0.478686
0.478683
0.478681
0.478678
0.478672
0.47866
0.478636
0.478589
0.478506
0.478367
0.478157
0.621164
0.500557
0.482019
0.479205
0.47878
0.478714
0.4787
0.478696
0.478692
0.47869
0.478687
0.478682
0.478673
0.478657
0.478627
0.478575
0.478489
0.478363
0.621161
0.500553
0.482019
0.479209
0.478786
0.47872
0.478708
0.478704
0.478701
0.478698
0.478695
0.478692
0.478686
0.478675
0.478657
0.478626
0.478578
0.478507
0.621158
0.500549
0.482017
0.47921
0.478789
0.478725
0.478713
0.47871
0.478708
0.478705
0.478703
0.4787
0.478696
0.47869
0.478679
0.478663
0.478637
0.478601
0.621156
0.500546
0.482015
0.479209
0.47879
0.478728
0.478717
0.478714
0.478712
0.47871
0.478709
0.478708
0.478705
0.478701
0.478694
0.478686
0.478673
0.478657
0.621154
0.500544
0.482013
0.479208
0.47879
0.478728
0.478718
0.478716
0.478714
0.478714
0.478712
0.478711
0.478709
0.478707
0.478704
0.4787
0.478693
0.478686
0.621154
0.500543
0.482012
0.479208
0.47879
0.478728
0.478718
0.478715
0.478714
0.478714
0.478713
0.478712
0.478711
0.478709
0.478706
0.478704
0.478701
0.478699
0.621154
0.500543
0.482012
0.479207
0.478789
0.478728
0.478718
0.478714
0.478712
0.478712
0.47871
0.478709
0.478708
0.478707
0.478706
0.478704
0.478702
0.478701
0.621154
0.500544
0.482012
0.479207
0.478788
0.478725
0.478715
0.478711
0.478709
0.478707
0.478706
0.478705
0.478704
0.478703
0.478702
0.478701
0.478699
0.4787
0.621154
0.500545
0.482014
0.479206
0.478784
0.47872
0.478709
0.478705
0.478703
0.478701
0.478699
0.478698
0.478697
0.478696
0.478696
0.478695
0.478694
0.478694
0.621154
0.500547
0.482015
0.479204
0.47878
0.478714
0.478702
0.478698
0.478696
0.478694
0.478693
0.478692
0.478692
0.478691
0.478691
0.47869
0.478689
0.47869
0.621152
0.500551
0.482014
0.479195
0.478767
0.478701
0.478689
0.478685
0.478684
0.478683
0.478683
0.478682
0.478682
0.478683
0.478682
0.478682
0.478682
0.478683
0.621147
0.500559
0.482014
0.479187
0.478759
0.478694
0.478684
0.478681
0.478681
0.47868
0.47868
0.47868
0.478681
0.478681
0.478681
0.478681
0.478681
0.478682
0.621134
0.500551
0.481983
0.479149
0.478725
0.478665
0.478657
0.478657
0.478658
0.47866
0.478662
0.478664
0.478665
0.478667
0.478669
0.47867
0.478671
0.478672
0.621195
0.500594
0.48198
0.479154
0.478749
0.478696
0.478689
0.478687
0.478686
0.478685
0.478684
0.478682
0.478681
0.47868
0.47868
0.47868
0.478679
0.47868
0.621276
0.500532
0.481808
0.478971
0.478582
0.478548
0.478561
0.47858
0.478597
0.478611
0.478622
0.478631
0.478639
0.478645
0.478651
0.478655
0.478659
0.478661
0.621626
0.501078
0.482445
0.479563
0.479064
0.478923
0.47885
0.478804
0.478771
0.478747
0.47873
0.478716
0.478707
0.4787
0.478695
0.478691
0.47869
0.478684
0.617042
0.497852
0.480426
0.478232
0.478138
0.478261
0.478372
0.478454
0.478512
0.478553
0.478582
0.478604
0.47862
0.478632
0.478642
0.47865
0.478659
0.478657
0.625111
0.502056
0.482622
0.479575
0.479005
0.478839
0.47877
0.478733
0.478711
0.478697
0.478687
0.47868
0.478676
0.478673
0.478671
0.478671
0.478674
0.478662
0.171914
0.171884
0.171817
0.171718
0.171591
0.171434
0.171246
0.171029
0.170782
0.170505
0.170202
0.169871
0.169513
0.16913
0.168721
0.168289
0.167834
0.167358
0.166861
0.166345
0.165811
0.165261
0.164696
0.164117
0.163526
0.162925
0.162315
0.161697
0.161074
0.160446
0.159815
0.159183
0.158551
0.15792
0.157293
0.156671
0.156055
0.155447
0.154847
0.154258
0.15368
0.153115
0.152565
0.152029
0.15151
0.151008
0.150524
0.150059
0.149614
0.14919
0.148787
0.148406
0.148047
0.147711
0.147398
0.147109
0.146843
0.146601
0.146383
0.146189
0.146018
0.14587
0.145746
0.145645
0.145567
0.14551
0.145476
0.145463
0.14547
0.145498
0.145545
0.145612
0.145696
0.145798
0.145917
0.146051
0.146201
0.146365
0.146543
0.146733
0.146934
0.147147
0.147369
0.147599
0.147838
0.148083
0.148333
0.148588
0.148845
0.149105
0.149366
0.149627
0.149886
0.150142
0.150395
0.150642
0.150884
0.151118
0.151345
0.151562
0.151769
0.151966
0.15215
0.152322
0.15248
0.152624
0.152753
0.152866
0.152963
0.153043
0.153105
0.153148
0.153172
0.153177
0.153161
0.153123
0.153064
0.152982
0.152877
0.152747
0.152593
0.152413
0.152206
0.151973
0.151711
0.151421
0.151101
0.150752
0.150371
0.149958
0.149512
0.149033
0.148519
0.147971
0.147386
0.146764
0.146105
0.145407
0.14467
0.143893
0.143074
0.142214
0.141311
0.140365
0.139375
0.138339
0.137258
0.136131
0.134956
0.133734
0.132464
0.131145
0.129777
0.128358
0.12689
0.125371
0.123801
0.12218
0.120508
0.118785
0.11701
0.115184
0.113308
0.111377
0.109396
0.107365
0.105281
0.10315
0.100973
0.098749
0.0964801
0.0941673
0.0918117
0.0894153
0.0869814
0.0845147
0.0820286
0.0795329
0.0771055
0.0746576
0.172756
0.172722
0.172659
0.172565
0.172439
0.172283
0.172096
0.171879
0.171632
0.171354
0.171047
0.170713
0.170352
0.169965
0.169553
0.169117
0.168659
0.168179
0.167679
0.167161
0.166624
0.166072
0.165505
0.164925
0.164332
0.16373
0.163118
0.162499
0.161875
0.161246
0.160614
0.159981
0.159348
0.158718
0.15809
0.157467
0.15685
0.156241
0.155641
0.155051
0.154473
0.153907
0.153356
0.152819
0.152299
0.151796
0.151311
0.150846
0.1504
0.149974
0.14957
0.149188
0.148828
0.148491
0.148177
0.147886
0.147619
0.147376
0.147156
0.146961
0.146788
0.14664
0.146514
0.146412
0.146332
0.146275
0.146239
0.146225
0.146231
0.146258
0.146304
0.14637
0.146453
0.146554
0.146672
0.146807
0.146956
0.14712
0.147298
0.147488
0.14769
0.147903
0.148125
0.148357
0.148596
0.148842
0.149094
0.149351
0.14961
0.149873
0.150136
0.150399
0.150661
0.15092
0.151176
0.151427
0.151672
0.151911
0.152141
0.152362
0.152573
0.152774
0.152963
0.153139
0.153301
0.15345
0.153583
0.153701
0.153803
0.153887
0.153954
0.154002
0.154031
0.154041
0.154029
0.153997
0.153942
0.153865
0.153764
0.153639
0.153489
0.153314
0.153112
0.152882
0.152625
0.152339
0.152024
0.151678
0.1513
0.150891
0.150449
0.149973
0.149463
0.148918
0.148336
0.147717
0.14706
0.146365
0.14563
0.144855
0.144038
0.14318
0.142278
0.141333
0.140344
0.13931
0.138229
0.137102
0.135928
0.134706
0.133435
0.132115
0.130746
0.129327
0.127857
0.126336
0.124764
0.123141
0.121466
0.11974
0.117961
0.116131
0.114251
0.112317
0.110334
0.108303
0.10622
0.104088
0.101909
0.0996836
0.0974118
0.0950952
0.0927351
0.0903333
0.087893
0.0854189
0.0829232
0.0804173
0.0779638
0.0755248
0.174433
0.174385
0.174312
0.174211
0.174079
0.173915
0.173719
0.173493
0.173237
0.172951
0.172637
0.172295
0.171927
0.171534
0.171116
0.170675
0.170212
0.169728
0.169224
0.168702
0.168163
0.167608
0.167039
0.166457
0.165863
0.165259
0.164647
0.164027
0.163401
0.162772
0.16214
0.161506
0.160873
0.160242
0.159614
0.15899
0.158373
0.157763
0.157163
0.156572
0.155993
0.155426
0.154874
0.154336
0.153815
0.153311
0.152824
0.152357
0.15191
0.151482
0.151077
0.150692
0.15033
0.149991
0.149675
0.149382
0.149113
0.148868
0.148646
0.148448
0.148274
0.148123
0.147995
0.147891
0.147809
0.14775
0.147713
0.147697
0.147702
0.147727
0.147773
0.147837
0.14792
0.148021
0.148139
0.148273
0.148423
0.148588
0.148766
0.148958
0.149162
0.149377
0.149603
0.149838
0.150081
0.150331
0.150588
0.150849
0.151115
0.151383
0.151654
0.151924
0.152194
0.152462
0.152726
0.152987
0.153242
0.15349
0.153731
0.153963
0.154185
0.154397
0.154597
0.154785
0.15496
0.15512
0.155266
0.155397
0.155511
0.155608
0.155687
0.155748
0.155789
0.155811
0.155813
0.155793
0.155751
0.155686
0.155598
0.155485
0.155348
0.155184
0.154994
0.154777
0.154531
0.154257
0.153952
0.153617
0.153251
0.152852
0.15242
0.151954
0.151453
0.150916
0.150343
0.149732
0.149084
0.148396
0.147668
0.146899
0.146088
0.145235
0.144339
0.143398
0.142413
0.141382
0.140304
0.13918
0.138007
0.136786
0.135516
0.134196
0.132826
0.131406
0.129934
0.12841
0.126835
0.125208
0.123528
0.121796
0.120012
0.118175
0.116287
0.114346
0.112354
0.110313
0.108221
0.106079
0.103889
0.10165
0.0993652
0.097034
0.0946579
0.0922386
0.0897789
0.087283
0.0847618
0.0822256
0.0797267
0.0772493
0.176952
0.17689
0.176807
0.176696
0.176554
0.176378
0.176171
0.175933
0.175666
0.175369
0.175045
0.174694
0.174317
0.173915
0.17349
0.173041
0.172572
0.172082
0.171572
0.171045
0.170502
0.169943
0.16937
0.168784
0.168187
0.167581
0.166966
0.166344
0.165717
0.165086
0.164452
0.163817
0.163182
0.16255
0.16192
0.161295
0.160677
0.160065
0.159463
0.15887
0.158289
0.157721
0.157166
0.156626
0.156103
0.155596
0.155107
0.154637
0.154186
0.153756
0.153347
0.152959
0.152594
0.152252
0.151932
0.151636
0.151363
0.151114
0.150889
0.150687
0.150509
0.150355
0.150224
0.150117
0.150032
0.149969
0.149929
0.149911
0.149913
0.149937
0.14998
0.150043
0.150125
0.150225
0.150342
0.150476
0.150626
0.150792
0.150972
0.151165
0.151372
0.15159
0.151819
0.152059
0.152307
0.152563
0.152827
0.153096
0.15337
0.153647
0.153927
0.154208
0.15449
0.15477
0.155047
0.155321
0.15559
0.155853
0.156109
0.156357
0.156596
0.156824
0.157041
0.157246
0.157438
0.157616
0.15778
0.157928
0.158061
0.158176
0.158274
0.158354
0.158414
0.158455
0.158475
0.158474
0.15845
0.158404
0.158335
0.158241
0.158121
0.157976
0.157804
0.157604
0.157375
0.157118
0.15683
0.156511
0.156161
0.155778
0.155361
0.154909
0.154422
0.153899
0.153339
0.152741
0.152104
0.151427
0.15071
0.149951
0.14915
0.148305
0.147417
0.146483
0.145504
0.144478
0.143405
0.142284
0.141115
0.139896
0.138627
0.137307
0.135937
0.134514
0.13304
0.131513
0.129933
0.1283
0.126614
0.124874
0.123081
0.121235
0.119335
0.117382
0.115377
0.113321
0.111213
0.109054
0.106845
0.104587
0.10228
0.0999262
0.0975254
0.0950791
0.0925899
0.0900611
0.087502
0.0849213
0.0823639
0.07982
0.180306
0.180233
0.18014
0.18002
0.179866
0.179679
0.17946
0.17921
0.17893
0.178621
0.178285
0.177922
0.177534
0.177122
0.176687
0.176229
0.175751
0.175252
0.174736
0.174202
0.173652
0.173087
0.172509
0.171919
0.171318
0.170708
0.170089
0.169464
0.168834
0.1682
0.167563
0.166926
0.166289
0.165653
0.165021
0.164394
0.163773
0.163159
0.162554
0.161958
0.161374
0.160803
0.160245
0.159702
0.159174
0.158664
0.158171
0.157697
0.157242
0.156808
0.156394
0.156002
0.155632
0.155285
0.154961
0.15466
0.154382
0.154128
0.153898
0.153692
0.153509
0.15335
0.153215
0.153102
0.153013
0.152947
0.152903
0.15288
0.15288
0.1529
0.15294
0.153
0.15308
0.153178
0.153294
0.153428
0.153578
0.153744
0.153925
0.15412
0.154329
0.154551
0.154784
0.155029
0.155283
0.155546
0.155817
0.156095
0.156379
0.156668
0.156959
0.157253
0.157548
0.157843
0.158136
0.158427
0.158713
0.158994
0.159269
0.159536
0.159795
0.160043
0.160281
0.160508
0.160721
0.160922
0.161108
0.161278
0.161433
0.161572
0.161693
0.161796
0.16188
0.161944
0.161987
0.16201
0.16201
0.161987
0.161941
0.16187
0.161773
0.16165
0.161501
0.161323
0.161117
0.16088
0.160614
0.160316
0.159985
0.159622
0.159224
0.158791
0.158322
0.157816
0.157272
0.15669
0.156068
0.155406
0.154702
0.153955
0.153166
0.152332
0.151453
0.150529
0.149558
0.148539
0.147472
0.146356
0.14519
0.143974
0.142706
0.141387
0.140016
0.138592
0.137114
0.135583
0.133997
0.132357
0.130663
0.128913
0.127109
0.12525
0.123337
0.121368
0.119346
0.117271
0.115143
0.112962
0.11073
0.108446
0.106112
0.103729
0.101296
0.0988157
0.0962889
0.0937184
0.0911121
0.0884766
0.0858516
0.0832241
0.18452
0.184438
0.184335
0.184204
0.184039
0.18384
0.183607
0.183344
0.18305
0.182728
0.182378
0.182003
0.181602
0.181177
0.18073
0.180262
0.179773
0.179265
0.178739
0.178196
0.177639
0.177067
0.176482
0.175885
0.175278
0.174662
0.174039
0.173409
0.172774
0.172135
0.171495
0.170853
0.170212
0.169573
0.168938
0.168307
0.167681
0.167064
0.166455
0.165855
0.165267
0.164691
0.164129
0.163581
0.163049
0.162533
0.162035
0.161556
0.161095
0.160655
0.160236
0.159838
0.159462
0.159109
0.158778
0.158471
0.158187
0.157927
0.15769
0.157478
0.157289
0.157124
0.156982
0.156864
0.156769
0.156697
0.156647
0.15662
0.156614
0.15663
0.156666
0.156723
0.156799
0.156894
0.157008
0.15714
0.157289
0.157454
0.157636
0.157832
0.158043
0.158267
0.158505
0.158754
0.159014
0.159284
0.159563
0.15985
0.160144
0.160444
0.160749
0.161057
0.161367
0.161678
0.161989
0.162297
0.162603
0.162904
0.1632
0.163489
0.16377
0.164041
0.164303
0.164553
0.164791
0.165016
0.165227
0.165424
0.165605
0.16577
0.165917
0.166046
0.166157
0.166248
0.166319
0.166368
0.166395
0.166399
0.16638
0.166335
0.166265
0.166169
0.166045
0.165893
0.165712
0.165501
0.165259
0.164985
0.164678
0.164337
0.163961
0.16355
0.163102
0.162617
0.162093
0.161529
0.160925
0.160279
0.159591
0.15886
0.158084
0.157264
0.156397
0.155483
0.154521
0.153511
0.152452
0.151342
0.150181
0.148968
0.147703
0.146384
0.145012
0.143586
0.142105
0.140569
0.138977
0.137329
0.135625
0.133865
0.132048
0.130174
0.128245
0.126259
0.124217
0.12212
0.119968
0.117762
0.115502
0.113189
0.110823
0.108405
0.105935
0.103414
0.100843
0.0982242
0.0955635
0.0928654
0.0901657
0.0874449
0.189617
0.189528
0.189416
0.189274
0.189097
0.188885
0.188638
0.188361
0.188052
0.187715
0.187351
0.186961
0.186546
0.186108
0.185647
0.185166
0.184664
0.184145
0.183608
0.183055
0.182487
0.181905
0.181312
0.180707
0.180092
0.179469
0.178838
0.178202
0.177561
0.176916
0.17627
0.175623
0.174976
0.174332
0.173691
0.173054
0.172424
0.171801
0.171186
0.170581
0.169987
0.169406
0.168837
0.168283
0.167745
0.167223
0.166718
0.166232
0.165765
0.165318
0.164891
0.164486
0.164103
0.163742
0.163403
0.163088
0.162796
0.162528
0.162284
0.162063
0.161866
0.161693
0.161544
0.161418
0.161316
0.161236
0.16118
0.161145
0.161133
0.161142
0.161173
0.161224
0.161295
0.161386
0.161495
0.161624
0.16177
0.161933
0.162113
0.162309
0.162521
0.162746
0.162986
0.163239
0.163504
0.16378
0.164066
0.164362
0.164666
0.164977
0.165294
0.165616
0.165941
0.166268
0.166596
0.166924
0.167249
0.167571
0.167889
0.1682
0.168504
0.1688
0.169086
0.169361
0.169625
0.169877
0.170115
0.170339
0.170547
0.17074
0.170916
0.171074
0.171213
0.171333
0.171433
0.171511
0.171568
0.171601
0.171611
0.171596
0.171555
0.171487
0.171392
0.171268
0.171115
0.170931
0.170716
0.170469
0.170188
0.169872
0.169522
0.169135
0.16871
0.168247
0.167745
0.167202
0.166618
0.165992
0.165322
0.164608
0.163848
0.163042
0.162189
0.161288
0.160338
0.159337
0.158286
0.157184
0.156029
0.154821
0.153558
0.152242
0.15087
0.149442
0.147958
0.146417
0.144818
0.143162
0.141448
0.139676
0.137845
0.135956
0.134009
0.132004
0.129941
0.12782
0.125643
0.123408
0.121118
0.118772
0.116371
0.113915
0.111404
0.108838
0.106218
0.103545
0.100825
0.0980585
0.0952796
0.0924607
0.195634
0.195537
0.195415
0.195261
0.195071
0.194844
0.194584
0.19429
0.193967
0.193614
0.193234
0.192827
0.192396
0.191942
0.191467
0.19097
0.190455
0.189921
0.189371
0.188806
0.188226
0.187633
0.187028
0.186413
0.185788
0.185155
0.184516
0.18387
0.183221
0.182568
0.181914
0.181259
0.180606
0.179954
0.179306
0.178662
0.178025
0.177394
0.176773
0.176161
0.175559
0.17497
0.174394
0.173833
0.173286
0.172756
0.172244
0.171749
0.171273
0.170818
0.170382
0.169968
0.169575
0.169205
0.168857
0.168532
0.168231
0.167953
0.167699
0.167468
0.167262
0.167079
0.16692
0.166784
0.166672
0.166583
0.166518
0.166474
0.166453
0.166454
0.166476
0.166519
0.166583
0.166666
0.16677
0.166892
0.167033
0.167192
0.167368
0.167562
0.167771
0.167996
0.168236
0.16849
0.168757
0.169037
0.169328
0.16963
0.169942
0.170263
0.170591
0.170925
0.171263
0.171606
0.17195
0.172295
0.172639
0.172981
0.173319
0.173653
0.173979
0.174298
0.174609
0.174909
0.175199
0.175476
0.175741
0.175993
0.176229
0.17645
0.176655
0.176842
0.177011
0.17716
0.17729
0.177398
0.177485
0.177549
0.177588
0.177603
0.177593
0.177555
0.17749
0.177395
0.177272
0.177117
0.17693
0.176711
0.176458
0.17617
0.175845
0.175484
0.175085
0.174646
0.174168
0.173648
0.173086
0.17248
0.17183
0.171134
0.170393
0.169603
0.168766
0.167878
0.166941
0.165952
0.164911
0.163817
0.16267
0.161467
0.160209
0.158895
0.157524
0.156095
0.154609
0.153064
0.151459
0.149795
0.148072
0.146288
0.144444
0.142539
0.140574
0.138549
0.136464
0.134319
0.132114
0.129851
0.127529
0.125148
0.12271
0.120213
0.117658
0.115044
0.112373
0.109643
0.106859
0.104022
0.101161
0.098243
0.202608
0.202503
0.202369
0.202202
0.201997
0.201756
0.201479
0.201169
0.200829
0.200458
0.20006
0.199636
0.199188
0.198716
0.198223
0.19771
0.197178
0.196628
0.196062
0.195481
0.194887
0.19428
0.193661
0.193033
0.192396
0.191751
0.1911
0.190443
0.189783
0.18912
0.188456
0.187791
0.187128
0.186467
0.185809
0.185157
0.18451
0.183871
0.18324
0.182619
0.182009
0.18141
0.180825
0.180254
0.179698
0.179158
0.178636
0.178131
0.177645
0.177179
0.176733
0.176308
0.175904
0.175522
0.175163
0.174827
0.174514
0.174224
0.173958
0.173715
0.173497
0.173302
0.173131
0.172983
0.172859
0.172758
0.17268
0.172625
0.172592
0.172581
0.172592
0.172624
0.172678
0.172751
0.172845
0.172958
0.173091
0.173242
0.173411
0.173598
0.173802
0.174023
0.174259
0.174511
0.174778
0.175058
0.175351
0.175656
0.175973
0.176299
0.176635
0.176978
0.177327
0.177681
0.178039
0.178399
0.178759
0.179118
0.179474
0.179827
0.180174
0.180514
0.180846
0.18117
0.181483
0.181785
0.182075
0.182352
0.182615
0.182863
0.183095
0.18331
0.183507
0.183686
0.183844
0.183982
0.184098
0.184192
0.184261
0.184306
0.184325
0.184318
0.184282
0.184218
0.184124
0.183998
0.183841
0.18365
0.183425
0.183165
0.182868
0.182533
0.18216
0.181747
0.181293
0.180797
0.180257
0.179674
0.179045
0.17837
0.177647
0.176875
0.176055
0.175183
0.17426
0.173284
0.172255
0.171171
0.170032
0.168837
0.167584
0.166274
0.164905
0.163478
0.16199
0.160442
0.158833
0.157162
0.15543
0.153635
0.151778
0.149859
0.147877
0.145832
0.143725
0.141556
0.139325
0.137032
0.134678
0.132263
0.129786
0.127248
0.124648
0.121986
0.119261
0.116473
0.113626
0.110716
0.107774
0.104757
0.210583
0.210468
0.210321
0.210139
0.209919
0.20966
0.209366
0.209038
0.208678
0.208288
0.20787
0.207426
0.206957
0.206466
0.205952
0.205419
0.204868
0.204299
0.203714
0.203115
0.202503
0.201879
0.201244
0.2006
0.199947
0.199287
0.198622
0.197952
0.197278
0.196602
0.195925
0.195248
0.194573
0.1939
0.193231
0.192567
0.191909
0.191258
0.190616
0.189984
0.189362
0.188753
0.188156
0.187574
0.187006
0.186455
0.18592
0.185404
0.184906
0.184427
0.183968
0.18353
0.183113
0.182718
0.182346
0.181996
0.181668
0.181364
0.181084
0.180827
0.180593
0.180384
0.180197
0.180035
0.179895
0.179779
0.179686
0.179616
0.179568
0.179542
0.179539
0.179556
0.179595
0.179655
0.179735
0.179835
0.179955
0.180094
0.180252
0.180428
0.180622
0.180834
0.181063
0.181308
0.181568
0.181844
0.182134
0.182438
0.182754
0.183082
0.18342
0.183767
0.184122
0.184484
0.184851
0.18522
0.185592
0.185963
0.186334
0.186701
0.187064
0.187421
0.187771
0.188114
0.188447
0.18877
0.189082
0.189381
0.189667
0.189939
0.190195
0.190435
0.190658
0.190863
0.191048
0.191213
0.191357
0.191478
0.191576
0.191649
0.191696
0.191717
0.19171
0.191675
0.191609
0.191512
0.191383
0.19122
0.191023
0.19079
0.19052
0.190212
0.189865
0.189477
0.189048
0.188576
0.188061
0.1875
0.186893
0.186239
0.185536
0.184783
0.18398
0.183126
0.182218
0.181257
0.18024
0.179168
0.17804
0.176853
0.175608
0.174304
0.172939
0.171514
0.170027
0.168477
0.166865
0.16519
0.163451
0.161647
0.159779
0.157847
0.155849
0.153787
0.15166
0.149468
0.147212
0.144891
0.142506
0.140057
0.137543
0.134965
0.132321
0.129611
0.126834
0.123988
0.121078
0.118097
0.115076
0.111963
0.219607
0.21948
0.219319
0.21912
0.218881
0.218603
0.218288
0.217939
0.217558
0.217145
0.216705
0.216237
0.215745
0.21523
0.214694
0.214137
0.213563
0.212971
0.212364
0.211744
0.21111
0.210465
0.20981
0.209146
0.208475
0.207797
0.207114
0.206426
0.205736
0.205044
0.204351
0.203659
0.202969
0.202281
0.201598
0.20092
0.200248
0.199584
0.198929
0.198283
0.197648
0.197025
0.196415
0.195819
0.195238
0.194673
0.194125
0.193594
0.193081
0.192588
0.192114
0.191661
0.191228
0.190818
0.190429
0.190062
0.189718
0.189397
0.189099
0.188825
0.188573
0.188346
0.188141
0.18796
0.187802
0.187667
0.187554
0.187465
0.187398
0.187353
0.18733
0.187329
0.187349
0.18739
0.187451
0.187533
0.187635
0.187757
0.187898
0.188058
0.188236
0.188433
0.188648
0.18888
0.189129
0.189395
0.189675
0.189971
0.190281
0.190603
0.190938
0.191283
0.191638
0.192
0.192369
0.192743
0.193119
0.193497
0.193875
0.194251
0.194624
0.194992
0.195354
0.19571
0.196058
0.196396
0.196724
0.197041
0.197345
0.197636
0.197912
0.198173
0.198417
0.198644
0.198851
0.19904
0.199207
0.199352
0.199475
0.199573
0.199646
0.199693
0.199712
0.199702
0.199663
0.199592
0.199489
0.199353
0.199182
0.198975
0.198731
0.198449
0.198127
0.197764
0.19736
0.196912
0.196419
0.195881
0.195296
0.194663
0.193981
0.193249
0.192464
0.191627
0.190736
0.189791
0.188789
0.18773
0.186613
0.185437
0.184202
0.182905
0.181547
0.180126
0.178642
0.177094
0.175481
0.173803
0.172059
0.17025
0.168373
0.16643
0.16442
0.162343
0.160199
0.157987
0.155708
0.153362
0.150948
0.148468
0.14592
0.143303
0.140618
0.137862
0.135035
0.132135
0.129163
0.126116
0.123019
0.119816
0.229733
0.229593
0.229414
0.229196
0.228935
0.228635
0.228297
0.227923
0.227515
0.227077
0.226609
0.226114
0.225594
0.225051
0.224487
0.223903
0.2233
0.222682
0.222048
0.221401
0.220742
0.220072
0.219393
0.218705
0.218011
0.217311
0.216606
0.215898
0.215188
0.214476
0.213764
0.213054
0.212346
0.211641
0.210941
0.210246
0.209558
0.208877
0.208206
0.207544
0.206893
0.206255
0.205629
0.205017
0.20442
0.203838
0.203273
0.202726
0.202196
0.201686
0.201194
0.200723
0.200273
0.199843
0.199435
0.199049
0.198685
0.198344
0.198025
0.19773
0.197457
0.197207
0.19698
0.196776
0.196595
0.196436
0.1963
0.196187
0.196096
0.196026
0.195979
0.195953
0.195948
0.195965
0.196002
0.19606
0.196137
0.196235
0.196353
0.19649
0.196646
0.196822
0.197016
0.197228
0.197458
0.197705
0.197969
0.198249
0.198544
0.198854
0.199177
0.199512
0.199858
0.200214
0.200577
0.200946
0.201319
0.201695
0.202072
0.202449
0.202824
0.203196
0.203563
0.203924
0.204279
0.204625
0.204963
0.20529
0.205606
0.205909
0.206199
0.206474
0.206734
0.206977
0.207202
0.207408
0.207594
0.207759
0.207901
0.20802
0.208114
0.208182
0.208223
0.208236
0.208219
0.208172
0.208092
0.207979
0.207832
0.207649
0.207429
0.20717
0.206872
0.206532
0.206151
0.205726
0.205256
0.20474
0.204177
0.203565
0.202904
0.202191
0.201426
0.200608
0.199734
0.198805
0.197819
0.196775
0.195672
0.194508
0.193284
0.191997
0.190647
0.189233
0.187755
0.186211
0.1846
0.182923
0.181178
0.179366
0.177484
0.175534
0.173515
0.171426
0.169267
0.167039
0.164741
0.162374
0.159936
0.157428
0.154849
0.152198
0.149475
0.146678
0.143805
0.140854
0.137827
0.134717
0.131551
0.128265
0.241019
0.240864
0.240665
0.240423
0.240137
0.23981
0.239443
0.239039
0.238601
0.23813
0.23763
0.237101
0.236548
0.235971
0.235372
0.234754
0.234119
0.233467
0.232801
0.232123
0.231433
0.230733
0.230024
0.229308
0.228587
0.22786
0.227129
0.226396
0.225662
0.224927
0.224193
0.22346
0.222731
0.222005
0.221285
0.22057
0.219862
0.219163
0.218473
0.217792
0.217123
0.216466
0.215821
0.215191
0.214575
0.213975
0.213391
0.212824
0.212274
0.211743
0.211232
0.210739
0.210267
0.209816
0.209385
0.208976
0.208589
0.208223
0.207879
0.207558
0.207259
0.206982
0.206728
0.206497
0.206287
0.2061
0.205935
0.205792
0.20567
0.205571
0.205493
0.205436
0.2054
0.205385
0.205391
0.205417
0.205463
0.20553
0.205617
0.205723
0.205849
0.205995
0.206159
0.206343
0.206545
0.206766
0.207004
0.20726
0.207532
0.207819
0.208121
0.208437
0.208765
0.209103
0.209451
0.209806
0.210166
0.210531
0.210898
0.211266
0.211633
0.211999
0.212361
0.21272
0.213073
0.213419
0.213757
0.214086
0.214406
0.214714
0.215009
0.215291
0.215559
0.215811
0.216046
0.216264
0.216462
0.216639
0.216796
0.216929
0.217039
0.217123
0.217181
0.217211
0.217213
0.217184
0.217124
0.21703
0.216903
0.21674
0.21654
0.216302
0.216025
0.215707
0.215347
0.214943
0.214494
0.213999
0.213457
0.212865
0.212224
0.211531
0.210785
0.209985
0.20913
0.208219
0.20725
0.206222
0.205133
0.203984
0.202773
0.201498
0.200159
0.198755
0.197285
0.195748
0.194143
0.19247
0.190728
0.188916
0.187033
0.18508
0.183055
0.18096
0.178792
0.176552
0.17424
0.171855
0.169398
0.166867
0.164262
0.161583
0.158827
0.155994
0.153081
0.150086
0.14701
0.143844
0.140616
0.137255
0.253529
0.253355
0.253132
0.252862
0.252545
0.252185
0.251783
0.251342
0.250865
0.250354
0.249813
0.249244
0.248648
0.24803
0.24739
0.24673
0.246054
0.245362
0.244657
0.24394
0.243213
0.242477
0.241733
0.240984
0.240229
0.239471
0.238709
0.237947
0.237184
0.236421
0.23566
0.234902
0.234148
0.233398
0.232654
0.231916
0.231186
0.230464
0.229752
0.22905
0.228359
0.22768
0.227014
0.226362
0.225724
0.225102
0.224495
0.223906
0.223333
0.222779
0.222243
0.221726
0.221228
0.220751
0.220293
0.219856
0.219441
0.219046
0.218673
0.218321
0.21799
0.217681
0.217394
0.217129
0.216885
0.216663
0.216462
0.216283
0.216124
0.215987
0.215871
0.215776
0.215701
0.215647
0.215613
0.2156
0.215607
0.215634
0.215681
0.215748
0.215834
0.215941
0.216067
0.216213
0.216378
0.216562
0.216764
0.216985
0.217223
0.217478
0.217749
0.218034
0.218333
0.218643
0.218964
0.219294
0.21963
0.219972
0.220317
0.220666
0.221015
0.221364
0.221712
0.222056
0.222397
0.222733
0.223062
0.223384
0.223697
0.224001
0.224293
0.224573
0.224841
0.225093
0.225331
0.225551
0.225753
0.225937
0.2261
0.226241
0.226359
0.226453
0.226522
0.226564
0.226577
0.226562
0.226515
0.226437
0.226325
0.226178
0.225995
0.225774
0.225514
0.225214
0.224872
0.224487
0.224057
0.223581
0.223058
0.222486
0.221863
0.221189
0.220463
0.219681
0.218845
0.217951
0.217
0.215989
0.214917
0.213784
0.212588
0.211327
0.210002
0.208611
0.207152
0.205625
0.204029
0.202364
0.200628
0.198821
0.196941
0.19499
0.192965
0.190867
0.188695
0.186449
0.184128
0.181732
0.179261
0.176714
0.17409
0.171387
0.168606
0.165743
0.162798
0.159766
0.156648
0.153435
0.150153
0.146727
0.267333
0.267137
0.266884
0.26658
0.266225
0.265822
0.265375
0.264887
0.264361
0.2638
0.263207
0.262585
0.261937
0.261266
0.260575
0.259865
0.259138
0.258398
0.257645
0.256882
0.25611
0.25533
0.254545
0.253755
0.252961
0.252165
0.251368
0.250571
0.249774
0.24898
0.248188
0.2474
0.246616
0.245838
0.245066
0.244301
0.243545
0.242797
0.24206
0.241332
0.240616
0.239913
0.239222
0.238544
0.237881
0.237233
0.2366
0.235984
0.235384
0.234802
0.234237
0.233691
0.233163
0.232654
0.232165
0.231696
0.231246
0.230816
0.230407
0.230019
0.22965
0.229303
0.228976
0.22867
0.228385
0.22812
0.227876
0.227652
0.227449
0.227266
0.227104
0.226961
0.226839
0.226737
0.226655
0.226593
0.226551
0.226529
0.226527
0.226544
0.226582
0.226639
0.226716
0.226814
0.226931
0.227067
0.227223
0.227398
0.227591
0.227801
0.228029
0.228272
0.228529
0.2288
0.229082
0.229374
0.229674
0.229981
0.230293
0.23061
0.230929
0.23125
0.231571
0.231891
0.232208
0.232523
0.232832
0.233136
0.233432
0.233721
0.234
0.234269
0.234526
0.23477
0.235
0.235214
0.235412
0.235593
0.235754
0.235895
0.236014
0.236111
0.236183
0.236229
0.236249
0.23624
0.236202
0.236132
0.23603
0.235894
0.235723
0.235515
0.235269
0.234982
0.234655
0.234285
0.233871
0.233412
0.232906
0.232351
0.231746
0.23109
0.230381
0.229618
0.2288
0.227925
0.226991
0.225998
0.224945
0.223829
0.222649
0.221405
0.220096
0.21872
0.217275
0.215762
0.214179
0.212526
0.2108
0.209002
0.207131
0.205186
0.203166
0.201071
0.1989
0.196654
0.19433
0.19193
0.189451
0.186894
0.184258
0.181541
0.178741
0.175857
0.172886
0.169826
0.166675
0.163425
0.1601
0.156619
0.28251
0.282287
0.281998
0.281649
0.281245
0.280787
0.280282
0.279732
0.279141
0.278514
0.277855
0.277166
0.276452
0.275715
0.274958
0.274185
0.273397
0.272597
0.271787
0.270968
0.270142
0.269311
0.268476
0.267639
0.266799
0.26596
0.265121
0.264283
0.263448
0.262616
0.261788
0.260965
0.260148
0.259337