/*--------------------------------*- C++ -*----------------------------------*\
| =========                 |                                                 |
| \\      /  F ield         | OpenFOAM: The Open Source CFD Toolbox           |
|  \\    /   O peration     | Version:  4.1                                   |
|   \\  /    A nd           | Web:      www.OpenFOAM.org                      |
|    \\/     M anipulation  |                                                 |
\*---------------------------------------------------------------------------*/
FoamFile
{
    version     2.0;
    format      ascii;
    class       volScalarField;
    location    "0.085";
    object      T;
}
// * * * * * * * * * * * * * * * * * * * * * * * * * * * * * * * * * * * * * //

dimensions      [0 0 0 1 0 0 0];

internalField   nonuniform List<scalar> 
12225
(
1.11552
1.23317
1.29917
1.34126
1.36974
1.38851
1.40119
1.41004
1.41642
1.42116
1.42479
1.42763
1.4299
1.43177
1.4333
1.43469
1.43581
1.43518
0.860947
0.707839
0.632408
0.594821
0.576427
0.569644
0.569414
0.572758
0.577971
0.584077
0.590513
0.596954
0.603214
0.609181
0.61481
0.619994
0.624958
0.628865
1.03458
1.08006
1.10414
1.11423
1.11556
1.11189
1.10559
1.09802
1.08996
1.08185
1.07398
1.06647
1.05942
1.05284
1.04677
1.04114
1.0362
1.0315
1.00165
0.998855
0.992981
0.988432
0.986044
0.98539
0.98593
0.9872
0.988859
0.990683
0.992533
0.994323
0.995998
0.997539
0.998939
1.00018
1.0013
1.00234
1.00023
1.00039
1.00026
1.00043
1.00067
1.0008
1.00084
1.0008
1.00072
1.00062
1.00051
1.00042
1.00033
1.00027
1.00023
1.00019
1.00021
1.00021
0.999584
0.999244
0.998899
0.998714
0.99862
0.998535
0.998453
0.99839
0.998342
0.998302
0.998271
0.998244
0.99822
0.998204
0.998189
0.998174
0.998175
0.998153
0.999929
1.00011
1.00016
1.00019
1.00023
1.00025
1.00026
1.00026
1.00026
1.00026
1.00026
1.00025
1.00024
1.00023
1.00022
1.00021
1.00021
1.00019
0.999971
1.00007
1.00006
1.00002
1.00001
1.00001
1.00001
1
1
1
1
1.00001
1.00002
1.00002
1.00002
1.00003
1.00003
1.00003
0.999979
1.00004
1.00003
1.00002
1.00002
1.00002
1.00002
1.00002
1.00002
1.00003
1.00003
1.00003
1.00003
1.00003
1.00003
1.00003
1.00003
1.00003
0.999978
1.00002
1.00001
0.999998
0.999998
1
0.999999
0.999997
0.999996
0.999997
0.999995
0.999996
1
0.999999
0.999995
1
0.999995
0.999997
0.999985
1.00001
1.00001
1
1
0.999997
0.999997
0.999997
1
1
1
0.999998
0.999997
1
1
1
0.999997
1
0.999988
1.00001
1.00001
0.999999
0.999997
0.999999
0.999998
0.999999
0.999998
0.999996
0.999996
0.999997
0.999999
0.999999
1
1
0.999996
1
0.999989
1.00001
1.00001
1
0.999999
0.999999
1
1
0.999999
0.999998
1
0.999998
0.999999
1
0.999999
1
0.999993
0.999997
0.999991
1
1.00001
1.00001
1
1
0.999997
0.999998
0.999999
0.999998
0.999996
0.999998
0.999997
0.999997
0.999997
0.999997
0.999994
1
0.999993
1
1.00001
1.00001
1
1
0.999998
0.999999
0.999999
0.999999
1
0.999999
0.999999
1
0.999995
0.999998
0.999992
0.999998
0.999994
1
1.00001
1
1
1
1
0.999999
0.999999
0.999997
0.999997
1
1
1
0.999999
0.999998
0.999993
0.999999
0.999993
1
1
1
1
1
1
1
0.999999
1
1
0.999999
0.999998
0.999999
1
1
0.999997
0.999999
0.999995
1
1
1.00001
1.00001
1.00001
1
1
1
1
1
1
1.00001
1.00001
1
1
0.999997
1
0.999995
1
1
1
1
1
1.00001
1
0.999999
1
1
1
0.999997
0.999995
0.999999
0.999997
0.999991
0.999995
0.999992
1
1
1
1
1
1.00001
1.00001
1.00001
1
1.00001
1.00001
1.00001
1.00001
1.00001
1.00001
1.00001
1.00002
0.999991
0.999999
1.00001
1
0.999996
0.999991
0.999991
0.999988
0.999986
0.999985
0.999981
0.999979
0.999975
0.999972
0.999972
0.999972
0.999964
0.999966
0.999988
1
1.00001
1.00001
1.00002
1.00002
1.00003
1.00004
1.00004
1.00005
1.00006
1.00006
1.00007
1.00007
1.00008
1.00008
1.00008
1.00009
0.999982
1
1
0.999974
0.999943
0.999921
0.9999
0.999878
0.99986
0.999842
0.999828
0.999815
0.999802
0.999795
0.999786
0.999779
0.99977
0.999767
0.999965
1.00007
1.00018
1.00024
1.0003
1.00037
1.00043
1.00049
1.00054
1.00058
1.00062
1.00065
1.00067
1.00069
1.00071
1.00072
1.00073
1.00074
0.999753
0.999568
0.999366
0.999131
0.998913
0.998704
0.998509
0.998342
0.998201
0.998088
0.998002
0.997936
0.997889
0.997856
0.997838
0.997829
0.997822
0.997814
0.999992
1.00043
1.00095
1.00167
1.00247
1.00316
1.00368
1.00405
1.00429
1.00442
1.00447
1.00446
1.0044
1.00432
1.00421
1.00409
1.00396
1.00386
0.999945
0.996247
0.990161
0.98452
0.980273
0.977358
0.975527
0.97452
0.974115
0.974128
0.974432
0.974931
0.975556
0.976259
0.977006
0.977763
0.978549
0.979195
1.0214
1.05634
1.0798
1.09471
1.10362
1.10848
1.11069
1.11118
1.11056
1.10922
1.10743
1.10537
1.10317
1.1009
1.09862
1.09638
1.09417
1.09224
0.922802
0.82784
0.774466
0.743959
0.725618
0.714657
0.708441
0.705217
0.70388
0.70374
0.704359
0.705454
0.70684
0.708395
0.710039
0.711701
0.713398
0.714943
1.06291
1.12901
1.16726
1.19166
1.20826
1.21975
1.22781
1.23361
1.2379
1.24113
1.24365
1.24564
1.24725
1.24858
1.24971
1.25063
1.25155
1.25214
1.36816e-18
1.41746e-18
-4.60466e-19
-6.31325e-19
-1.4739e-19
2.74976e-19
5.47864e-19
1.05984e-18
3.28105e-18
-5.52726e-17
-1.02526e-16
2.16605e-15
5.08202e-15
-3.59816e-14
-1.51249e-13
1.3075e-13
1.96533e-12
3.92537e-12
-5.09501e-12
-4.263e-11
-9.34933e-11
-3.79819e-11
3.70893e-10
1.33797e-09
2.58265e-09
2.75822e-09
-8.63745e-10
-1.19258e-08
-3.33896e-08
-6.49127e-08
-9.98322e-08
-1.22784e-07
-1.09068e-07
-2.6598e-08
1.5927e-07
4.78377e-07
9.46815e-07
1.55775e-06
2.27344e-06
3.01996e-06
3.68545e-06
4.12276e-06
4.15633e-06
3.59317e-06
2.23696e-06
-9.57112e-08
-3.55799e-06
-8.25593e-06
-1.4233e-05
-2.14563e-05
-2.98073e-05
-3.90752e-05
-4.89557e-05
-5.9054e-05
-6.88914e-05
-7.79168e-05
-8.55203e-05
-9.105e-05
-9.38319e-05
-9.31896e-05
-8.84638e-05
-7.90338e-05
-6.43368e-05
-4.38861e-05
-1.72867e-05
1.57503e-05
5.53972e-05
0.000101701
0.000154576
0.000213805
0.000279037
0.00034979
0.000425457
0.000505316
0.000588536
0.000674192
0.000761276
0.000848715
0.000935382
0.00102011
0.00110172
0.00117903
0.00125085
0.00131604
0.00137349
0.00142214
0.001461
0.00148916
0.0015058
0.00151017
0.00150164
0.00147967
0.00144384
0.00139382
0.00132938
0.00125041
0.0011569
0.00104893
0.000926658
0.000790361
0.000640373
0.000477037
0.000300504
0.000111907
-8.78725e-05
-0.000297896
-0.000517275
-0.000745161
-0.000980767
-0.00122338
-0.00147238
-0.00172723
-0.00198749
-0.00225284
-0.00252305
-0.00279801
-0.0030777
-0.00336223
-0.00365178
-0.00394663
-0.00424714
-0.00455372
-0.00486687
-0.00518712
-0.00551501
-0.0058511
-0.00619596
-0.00655013
-0.00691412
-0.00728838
-0.0076733
-0.00806915
-0.00847614
-0.00889436
-0.00932373
-0.00976406
-0.010215
-0.0106761
-0.0111466
-0.0116257
-0.0121124
-0.0126054
-0.0131034
-0.0136049
-0.0141083
-0.0146118
-0.0151134
-0.0156113
-0.0161032
-0.0165868
-0.0170599
-0.0175204
-0.0179661
-0.0183951
-0.0188065
-0.0191966
-0.0195648
-0.0199111
-0.0202296
-0.0205204
-0.0207718
-0.0210048
-0.0212335
-0.021369
-0.0213264
-0.0210684
-0.0207128
-0.0203353
-0.0199383
-0.0195164
-0.0190663
-0.0185839
-0.0180642
-0.0174931
-0.0168585
-0.016095
-0.0152097
-0.0137709
-0.0124049
-0.00673753
4.14433e-17
9.95426e-18
3.32136e-18
-3.45422e-18
-6.97597e-18
-7.42746e-18
-6.21643e-18
-3.03467e-17
-6.40817e-17
6.04498e-16
2.32735e-15
-6.27332e-15
-4.93371e-14
-4.26298e-14
4.32209e-13
1.61364e-12
9.40775e-13
-9.59771e-12
-3.56487e-11
-4.99472e-11
4.76422e-11
4.13209e-10
1.08723e-09
1.63524e-09
7.52448e-10
-3.79776e-09
-1.44574e-08
-3.20932e-08
-5.33568e-08
-6.79508e-08
-5.70113e-08
6.09322e-09
1.51581e-07
4.05447e-07
7.78683e-07
1.25506e-06
1.77969e-06
2.25076e-06
2.51681e-06
2.38133e-06
1.61558e-06
-2.03111e-08
-2.74903e-06
-6.74244e-06
-1.20852e-05
-1.87387e-05
-2.65085e-05
-3.50183e-05
-4.36931e-05
-5.17534e-05
-5.82206e-05
-6.19363e-05
-6.15941e-05
-5.57836e-05
-4.30456e-05
-2.19349e-05
8.91061e-06
5.06985e-05
0.000104409
0.000170726
0.000249972
0.000342055
0.000446423
0.00056203
0.000687315
0.000820206
0.000958126
0.00109802
0.0012364
0.00136939
0.00149281
0.00160224
0.0016931
0.00176078
0.00180071
0.00180845
0.00177981
0.00171097
0.00159852
0.00143959
0.00123191
0.000973907
0.000664732
0.000304323
-0.000106557
-0.000566305
-0.00107247
-0.00162174
-0.00221001
-0.00283235
-0.0034831
-0.0041559
-0.00484378
-0.00553918
-0.00623411
-0.00692019
-0.00758871
-0.00823075
-0.00883725
-0.00939899
-0.0099064
-0.0103483
-0.0107141
-0.0109984
-0.0111951
-0.0112989
-0.0113053
-0.0112104
-0.011011
-0.0107044
-0.0102887
-0.00976265
-0.00912579
-0.00837827
-0.00752094
-0.0065554
-0.00548394
-0.0043096
-0.0030361
-0.0016679
-0.000210179
0.00133122
0.00294976
0.00463822
0.00638874
0.00819284
0.0100414
0.0119249
0.013833
0.0157553
0.0176808
0.0195983
0.0214963
0.0233631
0.0251867
0.0269553
0.028657
0.0302805
0.0318144
0.0332477
0.0345696
0.03577
0.0368397
0.0377707
0.0385552
0.0391853
0.0396549
0.039961
0.0401002
0.0400672
0.0398615
0.0394892
0.0389471
0.0382377
0.0373763
0.0363474
0.0351646
0.0338502
0.0323612
0.0307592
0.0290522
0.027102
0.0249762
0.0228405
0.0204146
0.0175324
0.0144518
0.0113421
0.00826851
0.00525214
0.00229705
-0.000600991
-0.00345374
-0.00628569
-0.00913748
-0.0120806
-0.0152492
-0.0187492
-0.0231469
-0.0281216
1.05399e-16
-5.25427e-19
4.72017e-17
5.83267e-17
5.25505e-17
4.32151e-17
6.62228e-18
-1.37209e-17
6.2297e-16
2.11702e-15
-4.85237e-15
-4.11954e-14
-4.84285e-14
3.06567e-13
1.32161e-12
1.24928e-12
-6.33878e-12
-2.78563e-11
-4.59812e-11
1.73392e-11
2.99762e-10
8.67791e-10
1.40061e-09
7.91865e-10
-2.99232e-09
-1.23048e-08
-2.80662e-08
-4.69224e-08
-5.80433e-08
-4.09706e-08
3.37338e-08
1.99485e-07
4.83576e-07
8.92495e-07
1.39467e-06
1.90384e-06
2.26728e-06
2.26282e-06
1.60855e-06
-1.28805e-08
-2.91467e-06
-7.3529e-06
-1.34637e-05
-2.11964e-05
-3.02484e-05
-4.00108e-05
-4.953e-05
-5.7493e-05
-6.22403e-05
-6.181e-05
-5.40145e-05
-3.65483e-05
-7.12371e-06
3.637e-05
9.56916e-05
0.000172065
0.000265997
0.00037711
0.000503988
0.00064406
0.000793509
0.000947234
0.00109886
0.00124078
0.00136428
0.00145966
0.00151647
0.00152372
0.00147017
0.00134459
0.00113611
0.000834519
0.000430554
-8.37744e-05
-0.000714923
-0.00146758
-0.00234446
-0.00334613
-0.00447093
-0.0057149
-0.00707177
-0.008533
-0.0100879
-0.0117239
-0.0134264
-0.0151794
-0.0169654
-0.018766
-0.0205621
-0.022334
-0.0240622
-0.025727
-0.0273094
-0.0287912
-0.030155
-0.0313848
-0.0324659
-0.0333848
-0.0341297
-0.0346901
-0.0350552
-0.0352091
-0.0351484
-0.0348662
-0.0343572
-0.0336159
-0.0326371
-0.0314155
-0.0299458
-0.028223
-0.0262416
-0.0239965
-0.0214824
-0.0186941
-0.0156264
-0.0122746
-0.00863415
-0.00470104
-0.000471858
0.00405603
0.00888438
0.0140138
0.0194439
0.0251725
0.0311964
0.0375104
0.0441076
0.0509793
0.0581145
0.0655007
0.0731228
0.0809637
0.0890046
0.097224
0.105599
0.114103
0.122711
0.131392
0.140118
0.148855
0.157571
0.166231
0.174799
0.183242
0.191524
0.199608
0.207457
0.215039
0.222321
0.229268
0.235846
0.242034
0.247789
0.253094
0.257971
0.262326
0.266133
0.269481
0.272191
0.274332
0.275927
0.276754
0.27682
0.27629
0.275049
0.272867
0.269815
0.266055
0.261704
0.256828
0.251456
0.245581
0.239161
0.232072
0.224154
0.214878
0.204034
0.188709
0.172428
0.128877
-1.28493e-16
-2.01188e-16
-3.12414e-16
-2.62829e-16
-2.12029e-16
-1.92661e-16
-2.18974e-16
8.17952e-17
1.63135e-15
6.83403e-16
-2.1907e-14
-6.62371e-14
5.17315e-14
7.70734e-13
1.78019e-12
-6.87974e-13
-1.4575e-11
-4.01804e-11
-3.82655e-11
1.0036e-10
5.12631e-10
1.15608e-09
1.42283e-09
-2.34419e-10
-6.22288e-09
-1.87198e-08
-3.72241e-08
-5.50031e-08
-5.55475e-08
-1.0955e-08
1.15478e-07
3.6055e-07
7.45643e-07
1.25559e-06
1.81525e-06
2.26906e-06
2.36991e-06
1.78391e-06
1.16105e-07
-3.03991e-06
-8.02921e-06
-1.50439e-05
-2.40209e-05
-3.45399e-05
-4.57359e-05
-5.62388e-05
-6.41547e-05
-6.70998e-05
-6.2292e-05
-4.67072e-05
-1.72951e-05
2.87499e-05
9.36771e-05
0.00017884
0.00028435
0.000408752
0.000548722
0.000698842
0.000851439
0.000996525
0.00112184
0.00121302
0.00125386
0.00122669
0.00111284
0.000893246
0.000549
6.20353e-05
-0.00058422
-0.0014042
-0.00240963
-0.00360897
-0.00500701
-0.00660458
-0.0083983
-0.0103806
-0.0125397
-0.01486
-0.0173222
-0.0199039
-0.0225803
-0.0253242
-0.0281076
-0.0309017
-0.0336778
-0.036408
-0.0390658
-0.0416265
-0.0440681
-0.0463712
-0.0485193
-0.0504992
-0.0523006
-0.0539165
-0.0553425
-0.0565766
-0.0576194
-0.0584727
-0.0591397
-0.0596252
-0.0599361
-0.060088
-0.0600826
-0.0599212
-0.0596027
-0.0591246
-0.058482
-0.057668
-0.0566732
-0.0554865
-0.0540938
-0.0524792
-0.0506242
-0.0485085
-0.0461095
-0.0434025
-0.0403617
-0.0369594
-0.0331669
-0.0289549
-0.0242935
-0.0191531
-0.0135045
-0.00731967
-0.000571717
0.00676406
0.0147099
0.0232853
0.0325062
0.0423842
0.052927
0.0641374
0.0760132
0.0885474
0.101728
0.115537
0.129951
0.144941
0.160473
0.176509
0.193004
0.209912
0.227178
0.244748
0.262562
0.280561
0.298679
0.316852
0.335013
0.353095
0.371037
0.388788
0.406251
0.423339
0.440115
0.456427
0.472161
0.487445
0.50207
0.515979
0.529135
0.541477
0.552988
0.563616
0.573298
0.581926
0.589458
0.595926
0.601353
0.605753
0.609127
0.611446
0.612655
0.61261
0.61117
0.60766
0.602182
0.590665
0.57941
0.534905
-2.55619e-15
6.48568e-16
9.66556e-16
9.53839e-16
8.32786e-16
6.79915e-16
5.49032e-16
1.13034e-15
2.95093e-15
-1.91113e-15
-3.60623e-14
-7.13666e-14
1.56765e-13
1.07225e-12
1.87652e-12
-2.20211e-12
-1.91799e-11
-4.54378e-11
-3.20907e-11
1.40376e-10
6.04469e-10
1.27564e-09
1.44657e-09
-5.85144e-10
-7.38577e-09
-2.1151e-08
-4.09768e-08
-5.88906e-08
-5.5879e-08
-1.40571e-10
1.49666e-07
4.33725e-07
8.71871e-07
1.43722e-06
2.02685e-06
2.43658e-06
2.34859e-06
1.34129e-06
-1.07123e-06
-5.36599e-06
-1.19054e-05
-2.08061e-05
-3.17965e-05
-4.40798e-05
-5.62269e-05
-6.612e-05
-7.0969e-05
-6.74178e-05
-5.17486e-05
-2.0188e-05
3.06962e-05
0.000103526
0.000199596
0.000318346
0.000456865
0.00060946
0.000767342
0.000918452
0.00104748
0.00113605
0.00116315
0.00110571
0.000939374
0.000639474
0.000182006
-0.000455261
-0.00129171
-0.00234284
-0.00361942
-0.00512667
-0.0068638
-0.00882368
-0.0109929
-0.0133519
-0.0158758
-0.0185345
-0.0212943
-0.0241188
-0.0269701
-0.02981
-0.0326012
-0.0353088
-0.0379015
-0.0403517
-0.0426372
-0.0447412
-0.0466528
-0.048367
-0.0498838
-0.0512091
-0.0523533
-0.0533304
-0.0541577
-0.0548549
-0.0554424
-0.0559413
-0.0563721
-0.0567544
-0.0571068
-0.0574484
-0.0578088
-0.0582079
-0.0586513
-0.0591443
-0.0596889
-0.0602851
-0.0609296
-0.0616161
-0.0623355
-0.063075
-0.0638181
-0.0645447
-0.0652309
-0.0658477
-0.0663627
-0.0667384
-0.0669325
-0.0668983
-0.0665847
-0.0659361
-0.0648936
-0.0633942
-0.0613725
-0.0587613
-0.055492
-0.0514961
-0.0467059
-0.0410557
-0.0344835
-0.0269317
-0.0183487
-0.00869042
0.00207922
0.0139874
0.0270516
0.041279
0.0566654
0.0731942
0.0908377
0.109557
0.129304
0.150018
0.171632
0.194063
0.217227
0.241032
0.265387
0.290191
0.315344
0.34073
0.366236
0.391817
0.417365
0.442672
0.46782
0.492704
0.517126
0.541075
0.564468
0.587274
0.609436
0.630884
0.651595
0.671509
0.690592
0.70881
0.726127
0.742535
0.758027
0.772598
0.78624
0.798935
0.810659
0.821343
0.83098
0.839159
0.846345
0.849819
0.854711
0.843023
2.0927e-14
-1.20371e-16
-2.32408e-15
-3.32999e-15
-3.23328e-15
-2.98083e-15
-2.64867e-15
-1.47704e-15
6.89728e-16
-5.6571e-15
-4.26843e-14
-7.24189e-14
1.79324e-13
1.10845e-12
1.87893e-12
-2.13161e-12
-1.86316e-11
-4.48233e-11
-3.62042e-11
1.19693e-10
5.58219e-10
1.23413e-09
1.53735e-09
-1.07696e-10
-6.23311e-09
-1.92996e-08
-3.91467e-08
-5.89749e-08
-6.08995e-08
-1.32782e-08
1.2712e-07
4.05002e-07
8.46579e-07
1.43034e-06
2.05268e-06
2.49612e-06
2.41111e-06
1.32331e-06
-1.32269e-06
-6.07647e-06
-1.33517e-05
-2.32609e-05
-3.54331e-05
-4.88385e-05
-6.16526e-05
-7.1192e-05
-7.39525e-05
-6.5774e-05
-4.21436e-05
1.36243e-06
6.85175e-05
0.000161796
0.000281683
0.000426012
0.000589374
0.000762677
0.000932933
0.00108328
0.00119328
0.0012396
0.00119685
0.00103877
0.000739592
0.000275467
-0.000373987
-0.0012243
-0.00228489
-0.00355806
-0.00503833
-0.00671215
-0.00855813
-0.0105475
-0.0126452
-0.014811
-0.0170015
-0.0191714
-0.0212758
-0.023272
-0.0251211
-0.0267896
-0.0282506
-0.0294851
-0.0304816
-0.0312374
-0.0317575
-0.0320541
-0.0321461
-0.032058
-0.0318183
-0.0314582
-0.0310109
-0.0305099
-0.0299882
-0.0294772
-0.0290062
-0.0286018
-0.0282877
-0.0280847
-0.0280103
-0.0280788
-0.0282993
-0.028667
-0.0291922
-0.0298803
-0.0307375
-0.0317688
-0.0329789
-0.0343713
-0.0359481
-0.0377098
-0.0396541
-0.0417758
-0.0440658
-0.0465102
-0.0490896
-0.0517779
-0.0545416
-0.0573391
-0.0601192
-0.0628217
-0.065376
-0.0677015
-0.069708
-0.0712959
-0.0723573
-0.0727775
-0.0724361
-0.0712093
-0.0689727
-0.0656025
-0.0609799
-0.0549929
-0.0475408
-0.0385354
-0.0279039
-0.0155913
-0.00156197
0.0141974
0.0316773
0.0508458
0.0716493
0.0940137
0.117843
0.143023
0.169422
0.196891
0.225273
0.254408
0.284147
0.314317
0.344688
0.375173
0.405641
0.435864
0.465727
0.495103
0.52388
0.551979
0.5793
0.605772
0.631333
0.65593
0.67954
0.702129
0.723688
0.744215
0.763713
0.782201
0.7997
0.816244
0.831855
0.846558
0.860388
0.873338
0.885491
0.896635
0.907324
0.915918
0.926121
0.929868
-9.0245e-14
-8.55317e-15
4.29603e-15
1.08985e-14
1.21474e-14
1.16565e-14
1.06691e-14
1.03644e-14
1.11519e-14
4.91675e-15
-2.85463e-14
-6.30409e-14
1.26219e-13
9.1443e-13
1.79851e-12
-8.11465e-13
-1.3889e-11
-3.8387e-11
-4.39259e-11
5.98739e-11
4.06154e-10
1.02876e-09
1.54456e-09
7.42552e-10
-3.60543e-09
-1.41658e-08
-3.21039e-08
-5.35296e-08
-6.48965e-08
-3.9101e-08
6.47947e-08
2.94688e-07
6.88415e-07
1.24563e-06
1.89116e-06
2.43666e-06
2.55202e-06
1.76036e-06
-5.28809e-07
-4.93717e-06
-1.19816e-05
-2.18903e-05
-3.43879e-05
-4.8479e-05
-6.22666e-05
-7.28491e-05
-7.63357e-05
-6.80138e-05
-4.2688e-05
4.81129e-06
7.89709e-05
0.000182836
0.000317214
0.000479926
0.000665187
0.000863208
0.0010601
0.00123811
0.00137625
0.00145132
0.0014392
0.00131642
0.00106189
0.000658641
9.54255e-05
-0.000631942
-0.00151959
-0.00255515
-0.00371776
-0.00497869
-0.00630259
-0.00764902
-0.00897449
-0.0102348
-0.0113871
-0.0123927
-0.0132182
-0.013838
-0.014235
-0.0144014
-0.0143387
-0.0140573
-0.0135754
-0.0129179
-0.0121149
-0.0111994
-0.010206
-0.00916915
-0.00812156
-0.00709315
-0.00611025
-0.00519506
-0.00436554
-0.00363562
-0.00301562
-0.0025129
-0.00213251
-0.00187764
-0.00174895
-0.00173873
-0.00182218
-0.00200768
-0.00230018
-0.00270784
-0.00324076
-0.00391138
-0.00473435
-0.00572653
-0.00690669
-0.00829514
-0.00991317
-0.0117822
-0.0139229
-0.0163538
-0.0190896
-0.0221396
-0.025506
-0.0291808
-0.0331446
-0.0373634
-0.0417875
-0.0463484
-0.0509582
-0.0555088
-0.0598715
-0.0638974
-0.0674194
-0.070255
-0.0722084
-0.0730744
-0.0726446
-0.0707123
-0.0670786
-0.0615587
-0.0539883
-0.0442293
-0.032175
-0.0177526
-0.000927637
0.0182928
0.0398616
0.0636918
0.0896585
0.117601
0.147335
0.17864
0.211271
0.244972
0.279509
0.314626
0.35003
0.385483
0.420747
0.455593
0.489833
0.523288
0.555788
0.587202
0.617415
0.646338
0.673908
0.700071
0.724808
0.748102
0.769964
0.790412
0.809478
0.827205
0.843645
0.858855
0.872895
0.885822
0.897695
0.908545
0.918483
0.927358
0.935713
0.94217
0.950047
0.952912
3.33011e-13
6.06046e-14
-7.73206e-17
-3.30153e-14
-4.4129e-14
-4.5797e-14
-4.37506e-14
-3.9766e-14
-3.4418e-14
-3.33155e-14
-5.30383e-14
-8.71681e-14
8.6842e-15
5.56577e-13
1.46699e-12
5.80754e-13
-7.55324e-12
-2.71713e-11
-4.43422e-11
-2.02436e-13
2.17348e-10
7.03193e-10
1.32023e-09
1.34233e-09
-8.76202e-10
-7.80613e-09
-2.16554e-08
-4.17961e-08
-6.07096e-08
-5.94156e-08
-4.59309e-09
1.49292e-07
4.49188e-07
9.213e-07
1.53754e-06
2.17476e-06
2.57587e-06
2.32657e-06
8.64177e-07
-2.46602e-06
-8.29591e-06
-1.706e-05
-2.8772e-05
-4.27783e-05
-5.75255e-05
-7.03906e-05
-7.76211e-05
-7.44315e-05
-5.52837e-05
-1.43607e-05
5.37848e-05
0.000153456
0.000286983
0.000453937
0.000650488
0.00086901
0.00109802
0.00132252
0.00152473
0.00168525
0.00178452
0.00180444
0.0017302
0.00155185
0.00126571
0.000875289
0.000391731
-0.000166374
-0.000773832
-0.00140025
-0.00201195
-0.00257418
-0.00305351
-0.00342022
-0.00365034
-0.0037273
-0.00364307
-0.00339856
-0.00300336
-0.00247492
-0.00183702
-0.001118
-0.000348604
0.000440054
0.00121858
0.00196098
0.00264599
0.00325787
0.00378686
0.00422891
0.00458524
0.0048615
0.00506663
0.00521172
0.00530891
0.00537024
0.00540676
0.00542814
0.00544334
0.00546591
0.00548781
0.00550925
0.00552611
0.00553262
0.0055203
0.00547759
0.00538944
0.00523682
0.00499613
0.00463893
0.00413164
0.00343555
0.0025072
0.00129913
-0.000238726
-0.00215717
-0.00450508
-0.00732618
-0.0106552
-0.0145133
-0.0189034
-0.0238051
-0.02917
-0.0349178
-0.0409321
-0.0470594
-0.053108
-0.0588502
-0.064026
-0.0683478
-0.071507
-0.0731839
-0.0730585
-0.0708207
-0.0661819
-0.0588848
-0.0487248
-0.0355459
-0.0192497
0.000196201
0.0227583
0.0483352
0.0767645
0.107822
0.14125
0.176733
0.213922
0.252461
0.29197
0.332076
0.372414
0.41264
0.452432
0.491488
0.529549
0.566385
0.601805
0.635659
0.667828
0.698226
0.726801
0.753528
0.77841
0.801467
0.822744
0.842298
0.860193
0.876514
0.891346
0.904771
0.916884
0.927771
0.937517
0.946182
0.953895
0.960546
0.966677
0.971019
0.976704
0.977863
-1.28025e-12
-3.13336e-13
-5.71277e-14
9.19596e-14
1.56172e-13
1.7587e-13
1.75502e-13
1.66373e-13
1.54735e-13
1.41176e-13
1.16139e-13
7.29746e-14
7.83828e-14
3.55035e-13
1.06535e-12
1.32339e-12
-2.24314e-12
-1.46354e-11
-3.39699e-11
-3.2142e-11
6.50996e-11
3.63381e-10
8.92991e-10
1.36641e-09
8.41585e-10
-2.4991e-09
-1.10406e-08
-2.63679e-08
-4.64526e-08
-6.15545e-08
-4.99799e-08
2.39486e-08
2.06335e-07
5.40971e-07
1.04498e-06
1.6733e-06
2.27685e-06
2.56456e-06
2.08397e-06
2.37754e-07
-3.64775e-06
-1.01917e-05
-1.97661e-05
-3.22555e-05
-4.67987e-05
-6.15556e-05
-7.35502e-05
-7.86413e-05
-7.16636e-05
-4.67624e-05
2.08117e-06
8.03669e-05
0.000192302
0.000340023
0.000522926
0.000737209
0.000975714
0.00122815
0.00148171
0.00172206
0.00193461
0.002106
0.00222554
0.00228657
0.00228746
0.00223215
0.00213014
0.00199593
0.00184783
0.00170634
0.00159227
0.00152466
0.00151888
0.00158504
0.00172684
0.00194116
0.0022182
0.00254235
0.00289364
0.00324957
0.00358715
0.00388493
0.00412488
0.00429371
0.00438385
0.00439373
0.00432749
0.00419421
0.0040068
0.00378067
0.00353237
0.00327827
0.00303357
0.00281158
0.00262335
0.00247746
0.00238014
0.00233522
0.00234269
0.00238631
0.00246561
0.00258262
0.00273879
0.00293541
0.00317304
0.0034509
0.0037661
0.0041125
0.00447957
0.00485087
0.0052025
0.00550168
0.00570532
0.00575905
0.00559702
0.00514253
0.00430991
0.00300791
0.00114441
-0.00136746
-0.00460152
-0.00860956
-0.013412
-0.0189885
-0.0252692
-0.0321274
-0.0393743
-0.0467569
-0.0539615
-0.0606234
-0.0663308
-0.0706407
-0.0730961
-0.073244
-0.0706587
-0.0649397
-0.0557689
-0.0429012
-0.0261755
-0.00552848
0.0190047
0.0472864
0.079089
0.114104
0.151945
0.192174
0.234316
0.27787
0.322332
0.367204
0.412008
0.456303
0.499689
0.541812
0.582374
0.621129
0.657886
0.692506
0.724897
0.75501
0.782838
0.808408
0.831774
0.853014
0.872224
0.889517
0.905007
0.91882
0.931082
0.941919
0.951454
0.959798
0.967068
0.973348
0.978787
0.983311
0.987443
0.990051
0.994019
0.994252
5.05529e-12
1.46388e-12
4.15065e-13
-2.23683e-13
-5.4244e-13
-6.6865e-13
-6.98971e-13
-6.80853e-13
-6.39959e-13
-5.90502e-13
-5.45233e-13
-5.17694e-13
-4.93144e-13
-3.58648e-13
8.78055e-14
7.24e-13
7.22656e-14
-5.46975e-12
-1.91231e-11
-3.3716e-11
-1.40164e-11
1.15176e-10
4.40782e-10
9.44831e-10
1.27192e-09
4.36321e-10
-3.32529e-09
-1.21765e-08
-2.73117e-08
-4.62704e-08
-5.91185e-08
-4.45716e-08
3.17464e-08
2.13762e-07
5.42741e-07
1.03405e-06
1.64322e-06
2.22573e-06
2.50025e-06
2.02915e-06
2.33475e-07
-3.54233e-06
-9.90544e-06
-1.92298e-05
-3.14253e-05
-4.56896e-05
-6.02855e-05
-7.23913e-05
-7.80758e-05
-7.24336e-05
-4.99011e-05
-4.74452e-06
6.83206e-05
0.000173444
0.000312982
0.000486957
0.000692747
0.000925045
0.00117617
0.00143668
0.00169626
0.00194477
0.00217336
0.00237541
0.00254728
0.00268867
0.00280251
0.00289449
0.00297208
0.00304335
0.00311563
0.00319424
0.00328144
0.00337581
0.00347211
0.00356172
0.00363354
0.00367533
0.00367525
0.00362345
0.00351341
0.00334296
0.00311473
0.00283605
0.00251821
0.00217535
0.00182299
0.0014765
0.00114964
0.000853496
0.000595746
0.000380493
0.000208528
7.79967e-05
-1.47078e-05
-7.39735e-05
-0.000104251
-0.000110406
-0.000102231
-8.13043e-05
-4.49378e-05
9.99401e-06
8.82001e-05
0.000195832
0.000340547
0.000531317
0.000777961
0.00109029
0.00147675
0.00194246
0.00248667
0.0030997
0.0037594
0.00442772
0.00504747
0.00554007
0.00580471
0.00571993
0.00514852
0.0039456
0.00196719
-0.000915513
-0.00480096
-0.0097409
-0.0157245
-0.0226647
-0.0303872
-0.0386233
-0.0470006
-0.0550723
-0.0623153
-0.0681521
-0.0719779
-0.0731843
-0.071209
-0.0655206
-0.0556977
-0.0414281
-0.0225223
0.00107196
0.0292654
0.0618342
0.0984333
0.138611
0.181828
0.227483
0.274937
0.323538
0.372645
0.421645
0.46997
0.517115
0.56264
0.606179
0.647439
0.686207
0.722336
0.755743
0.786401
0.814339
0.839622
0.862354
0.882663
0.900691
0.916597
0.930551
0.942715
0.953258
0.962337
0.970109
0.976718
0.982294
0.986968
0.990834
0.994043
0.996541
0.998822
0.999856
1.00229
1.00159
-2.01479e-11
-6.54945e-12
-2.27591e-12
3.89491e-13
1.85872e-12
2.52814e-12
2.76761e-12
2.77353e-12
2.66039e-12
2.49234e-12
2.30483e-12
2.1119e-12
1.91855e-12
1.76194e-12
1.76632e-12
2.06589e-12
2.33455e-12
9.09404e-13
-5.45452e-12
-1.85252e-11
-2.91375e-11
-2.42988e-12
1.29595e-10
4.38967e-10
8.97075e-10
1.17357e-09
3.86118e-10
-3.02878e-09
-1.10087e-08
-2.47234e-08
-4.22956e-08
-5.54785e-08
-4.61124e-08
1.58531e-08
1.70097e-07
4.56381e-07
8.95349e-07
1.45937e-06
2.03667e-06
2.39621e-06
2.16547e-06
8.35493e-07
-2.19216e-06
-7.50649e-06
-1.55346e-05
-2.63459e-05
-3.94364e-05
-5.35284e-05
-6.64287e-05
-7.49857e-05
-7.51808e-05
-6.23704e-05
-3.16696e-05
2.15533e-05
0.000101129
0.000209562
0.0003476
0.000513979
0.00070539
0.000916684
0.0011413
0.00137187
0.0016009
0.00182145
0.00202765
0.00221509
0.00238091
0.00252357
0.00264254
0.00273766
0.00280862
0.00285442
0.00287311
0.0028617
0.00281654
0.00273387
0.00261064
0.00244538
0.00223907
0.00199566
0.00172234
0.00142921
0.00112864
0.000834101
0.00055885
0.000314492
0.000109758
-5.03635e-05
-0.000164993
-0.000237164
-0.000273128
-0.000281287
-0.000270974
-0.000251278
-0.000230115
-0.000213625
-0.000205899
-0.000208876
-0.000215046
-0.000225514
-0.000239702
-0.000256557
-0.000273769
-0.00028726
-0.000290478
-0.000273715
-0.000223596
-0.000122977
4.84448e-05
0.000312518
0.000689784
0.00119527
0.00183302
0.00258977
0.00342837
0.00428196
0.00504986
0.0055957
0.00574714
0.00531377
0.00409267
0.00188871
-0.001463
-0.00607247
-0.0119701
-0.0190849
-0.0272279
-0.0360886
-0.0452097
-0.0540302
-0.0618906
-0.0680623
-0.0717873
-0.0723175
-0.0689562
-0.0611068
-0.0482995
-0.0302215
-0.00673493
0.0221147
0.056101
0.0948311
0.137769
0.184263
0.233575
0.284916
0.337482
0.390485
0.443178
0.494877
0.544982
0.592986
0.638476
0.681142
0.720768
0.757228
0.790476
0.820533
0.847479
0.871444
0.892591
0.911104
0.927191
0.941064
0.952936
0.963014
0.971499
0.978585
0.984449
0.989251
0.993141
0.996247
0.998694
1.00057
1.00202
1.00297
1.0039
1.00383
1.00519
1.00386
8.11779e-11
2.86113e-11
1.1193e-11
1.94673e-13
-6.30751e-12
-9.55431e-12
-1.09445e-11
-1.12683e-11
-1.10094e-11
-1.0448e-11
-9.7531e-12
-9.02885e-12
-8.33832e-12
-7.70149e-12
-7.07868e-12
-6.34978e-12
-5.42189e-12
-4.67014e-12
-5.65663e-12
-1.12071e-11
-2.26862e-11
-3.20803e-11
-9.74855e-12
1.02501e-10
3.70456e-10
7.87272e-10
1.11326e-09
6.62647e-10
-1.84371e-09
-8.12255e-09
-1.95445e-08
-3.54298e-08
-5.03817e-08
-5.11434e-08
-1.42157e-08
9.37288e-08
3.10116e-07
6.63129e-07
1.14977e-06
1.70681e-06
2.17958e-06
2.29709e-06
1.66488e-06
-2.12472e-07
-3.86972e-06
-9.77621e-06
-1.81934e-05
-2.901e-05
-4.15796e-05
-5.45929e-05
-6.6017e-05
-7.31297e-05
-7.26634e-05
-6.10587e-05
-3.48052e-05
9.16723e-06
7.30987e-05
0.000158066
0.000263755
0.000388375
0.000528728
0.000680428
0.000838224
0.000996397
0.00114915
0.00129093
0.00141673
0.00152218
0.0016036
0.00165798
0.00168292
0.00167658
0.00163774
0.00156596
0.00146177
0.00132704
0.00116522
0.000981574
0.000783207
0.000578826
0.00037823
0.000191535
2.81908e-05
-0.00010407
-0.000200177
-0.000258387
-0.000280526
-0.000271721
-0.000239624
-0.000193244
-0.000141589
-9.2385e-05
-5.11349e-05
-2.07365e-05
-1.70174e-06
7.23924e-06
9.04238e-06
8.02006e-06
4.30776e-06
-3.2812e-06
-1.61486e-05
-3.60194e-05
-6.44435e-05
-0.000101985
-0.000146939
-0.000193852
-0.000231946
-0.000243845
-0.000205155
-8.54704e-05
0.000148674
0.00052858
0.00107592
0.00179348
0.00265517
0.00359657
0.0045084
0.00523735
0.00557502
0.00528817
0.00412733
0.00185321
-0.00173204
-0.00675141
-0.0132206
-0.0210205
-0.0298778
-0.0393553
-0.0488629
-0.0576736
-0.064958
-0.0698289
-0.0713937
-0.0688093
-0.061337
-0.0483902
-0.029572
-0.00470081
0.0261788
0.0627991
0.104685
0.151185
0.201507
0.254761
0.310002
0.366277
0.42266
0.478292
0.532402
0.584327
0.633531
0.6796
0.722241
0.76128
0.796647
0.828367
0.856531
0.8813
0.902881
0.921505
0.937429
0.950916
0.962229
0.971621
0.979337
0.985603
0.990626
0.994597
0.997683
1.00003
1.00176
1.003
1.00385
1.00436
1.00465
1.00467
1.00479
1.00414
1.00492
1.00333
-3.30271e-10
-1.23315e-10
-5.20714e-11
-6.86615e-12
2.12544e-11
3.62318e-11
4.33609e-11
4.5782e-11
4.55043e-11
4.37299e-11
4.12026e-11
3.83852e-11
3.55719e-11
3.2889e-11
3.03764e-11
2.80802e-11
2.6101e-11
2.45076e-11
2.29663e-11
2.01256e-11
1.34561e-11
1.20237e-12
-1.15378e-11
-2.60045e-12
7.55298e-11
2.8623e-10
6.5689e-10
1.06272e-09
1.05164e-09
-3.22702e-10
-4.50305e-09
-1.30223e-08
-2.64223e-08
-4.23483e-08
-5.29864e-08
-4.25355e-08
1.39666e-08
1.48612e-07
3.93411e-07
7.66504e-07
1.25184e-06
1.77462e-06
2.17757e-06
2.20536e-06
1.50582e-06
-3.43992e-07
-3.78222e-06
-9.1776e-06
-1.67233e-05
-2.63235e-05
-3.74935e-05
-4.92936e-05
-6.03193e-05
-6.8759e-05
-7.25248e-05
-6.9446e-05
-5.75055e-05
-3.50905e-05
-1.22428e-06
4.42548e-05
0.00010059
0.000166093
0.000238225
0.000313748
0.000388943
0.000459847
0.00052251
0.000573222
0.000608724
0.000626379
0.000624322
0.000601585
0.000558208
0.000495332
0.000415256
0.000321458
0.000218518
0.000111944
7.864e-06
-8.74186e-05
-0.000167981
-0.0002289
-0.000266856
-0.000280619
-0.000271341
-0.000242511