/*--------------------------------*- C++ -*----------------------------------*\
| =========                 |                                                 |
| \\      /  F ield         | OpenFOAM: The Open Source CFD Toolbox           |
|  \\    /   O peration     | Version:  4.1                                   |
|   \\  /    A nd           | Web:      www.OpenFOAM.org                      |
|    \\/     M anipulation  |                                                 |
\*---------------------------------------------------------------------------*/
FoamFile
{
    version     2.0;
    format      ascii;
    class       volScalarField;
    location    "0.035";
    object      T;
}
// * * * * * * * * * * * * * * * * * * * * * * * * * * * * * * * * * * * * * //

dimensions      [0 0 0 1 0 0 0];

internalField   nonuniform List<scalar> 
12225
(
1.11552
1.23317
1.29917
1.34126
1.36974
1.38851
1.40119
1.41004
1.41642
1.42116
1.42479
1.42763
1.4299
1.43177
1.4333
1.43469
1.43581
1.43518
0.860947
0.707839
0.632408
0.594821
0.576427
0.569644
0.569414
0.572758
0.577971
0.584077
0.590513
0.596954
0.603214
0.609181
0.61481
0.619994
0.624958
0.628865
1.03458
1.08006
1.10414
1.11423
1.11556
1.11189
1.10559
1.09802
1.08996
1.08185
1.07398
1.06647
1.05942
1.05284
1.04677
1.04114
1.0362
1.0315
1.00165
0.998855
0.992981
0.988432
0.986044
0.98539
0.98593
0.9872
0.988859
0.990683
0.992533
0.994323
0.995998
0.997539
0.998939
1.00018
1.0013
1.00234
1.00023
1.00039
1.00026
1.00043
1.00067
1.0008
1.00084
1.0008
1.00072
1.00062
1.00051
1.00042
1.00033
1.00027
1.00023
1.00019
1.00021
1.00021
0.999584
0.999244
0.998899
0.998714
0.99862
0.998535
0.998453
0.99839
0.998342
0.998302
0.998271
0.998244
0.99822
0.998204
0.998189
0.998174
0.998175
0.998153
0.999929
1.00011
1.00016
1.00019
1.00023
1.00025
1.00026
1.00026
1.00026
1.00026
1.00026
1.00025
1.00024
1.00023
1.00022
1.00021
1.00021
1.00019
0.999971
1.00007
1.00006
1.00002
1.00001
1.00001
1.00001
1
1
1
1
1.00001
1.00002
1.00002
1.00002
1.00003
1.00003
1.00003
0.999979
1.00004
1.00003
1.00002
1.00002
1.00002
1.00002
1.00002
1.00002
1.00003
1.00003
1.00003
1.00003
1.00003
1.00003
1.00003
1.00003
1.00003
0.999978
1.00002
1.00001
0.999998
0.999998
1
0.999999
0.999997
0.999996
0.999997
0.999995
0.999996
1
0.999999
0.999995
1
0.999995
0.999997
0.999985
1.00001
1.00001
1
1
0.999997
0.999997
0.999997
1
1
1
0.999998
0.999997
1
1
1
0.999997
1
0.999988
1.00001
1.00001
0.999999
0.999997
0.999999
0.999998
0.999999
0.999998
0.999996
0.999996
0.999997
0.999999
0.999999
1
1
0.999996
1
0.999989
1.00001
1.00001
1
0.999999
0.999999
1
1
0.999999
0.999998
1
0.999998
0.999999
1
0.999999
1
0.999993
0.999997
0.999991
1
1.00001
1.00001
1
1
0.999997
0.999998
0.999999
0.999998
0.999996
0.999998
0.999997
0.999997
0.999997
0.999997
0.999994
1
0.999993
1
1.00001
1.00001
1
1
0.999998
0.999999
0.999999
0.999999
1
0.999999
0.999999
1
0.999995
0.999998
0.999992
0.999998
0.999994
1
1.00001
1
1
1
1
0.999999
0.999999
0.999997
0.999997
1
1
1
0.999999
0.999998
0.999993
0.999999
0.999993
1
1
1
1
1
1
1
0.999999
1
1
0.999999
0.999998
0.999999
1
1
0.999997
0.999999
0.999995
1
1
1.00001
1.00001
1.00001
1
1
1
1
1
1
1.00001
1.00001
1
1
0.999997
1
0.999995
1
1
1
1
1
1.00001
1
0.999999
1
1
1
0.999997
0.999995
0.999999
0.999997
0.999991
0.999995
0.999992
1
1
1
1
1
1.00001
1.00001
1.00001
1
1.00001
1.00001
1.00001
1.00001
1.00001
1.00001
1.00001
1.00002
0.999991
0.999999
1.00001
1
0.999996
0.999991
0.999991
0.999988
0.999986
0.999985
0.999981
0.999979
0.999975
0.999972
0.999972
0.999972
0.999964
0.999966
0.999988
1
1.00001
1.00001
1.00002
1.00002
1.00003
1.00004
1.00004
1.00005
1.00006
1.00006
1.00007
1.00007
1.00008
1.00008
1.00008
1.00009
0.999982
1
1
0.999974
0.999943
0.999921
0.9999
0.999878
0.99986
0.999842
0.999828
0.999815
0.999802
0.999795
0.999786
0.999779
0.99977
0.999767
0.999965
1.00007
1.00018
1.00024
1.0003
1.00037
1.00043
1.00049
1.00054
1.00058
1.00062
1.00065
1.00067
1.00069
1.00071
1.00072
1.00073
1.00074
0.999753
0.999568
0.999366
0.999131
0.998913
0.998704
0.998509
0.998342
0.998201
0.998088
0.998002
0.997936
0.997889
0.997856
0.997838
0.997829
0.997822
0.997814
0.999992
1.00043
1.00095
1.00167
1.00247
1.00316
1.00368
1.00405
1.00429
1.00442
1.00447
1.00446
1.0044
1.00432
1.00421
1.00409
1.00396
1.00386
0.999945
0.996247
0.990161
0.98452
0.980273
0.977358
0.975527
0.97452
0.974115
0.974128
0.974432
0.974931
0.975556
0.976259
0.977006
0.977763
0.978549
0.979195
1.0214
1.05634
1.0798
1.09471
1.10362
1.10848
1.11069
1.11118
1.11056
1.10922
1.10743
1.10537
1.10317
1.1009
1.09862
1.09638
1.09417
1.09224
0.922802
0.82784
0.774466
0.743959
0.725618
0.714657
0.708441
0.705217
0.70388
0.70374
0.704359
0.705454
0.70684
0.708395
0.710039
0.711701
0.713398
0.714943
1.06291
1.12901
1.16726
1.19166
1.20826
1.21975
1.22781
1.23361
1.2379
1.24113
1.24365
1.24564
1.24725
1.24858
1.24971
1.25063
1.25155
1.25214
-7.81125e-23
-2.43329e-23
-6.51559e-24
-7.89721e-24
1.9046e-25
4.44249e-24
9.858e-24
1.52956e-23
1.87689e-23
1.99306e-23
1.92907e-23
1.73707e-23
1.46947e-23
1.17599e-23
8.95969e-24
6.53592e-24
4.58675e-24
3.10519e-24
2.02451e-24
1.2558e-24
7.13615e-25
3.29534e-25
5.55995e-26
-1.38725e-25
-2.72242e-25
-3.57323e-25
-4.03444e-25
-4.18888e-25
-4.11252e-25
-3.87372e-25
-3.53128e-25
-3.13301e-25
-2.71563e-25
-2.30566e-25
-1.9209e-25
-1.57213e-25
-1.2648e-25
-1.00046e-25
-7.7795e-26
-5.94536e-26
-4.47358e-26
-3.35196e-26
-2.5768e-26
-2.00593e-26
-8.42307e-27
3.3355e-26
1.46913e-25
3.26037e-25
2.39941e-25
-1.46099e-24
-8.1735e-24
-2.51206e-23
-5.20565e-23
-5.47184e-23
1.09223e-22
8.30291e-22
2.91059e-21
7.4836e-21
1.48663e-20
2.0414e-20
3.6879e-21
-9.47769e-20
-4.15441e-19
-1.24193e-18
-3.06637e-18
-6.59564e-18
-1.25461e-17
-2.09208e-17
-2.92372e-17
-2.89006e-17
1.32163e-18
1.05767e-16
3.66745e-16
9.22516e-16
1.98349e-15
3.83531e-15
6.80747e-15
1.11722e-14
1.69211e-14
2.33481e-14
2.83538e-14
2.73845e-14
1.19405e-14
-3.23405e-14
-1.27895e-13
-3.07386e-13
-6.15121e-13
-1.1066e-12
-1.84446e-12
-2.8885e-12
-4.27645e-12
-5.99178e-12
-7.91408e-12
-9.74753e-12
-1.09235e-11
-1.04753e-11
-6.88668e-12
2.07845e-12
1.9545e-11
4.96528e-11
9.7539e-11
1.68888e-10
2.6815e-10
3.98768e-10
5.61476e-10
7.5286e-10
9.63807e-10
1.17806e-09
1.37112e-09
1.5097e-09
1.55202e-09
1.44907e-09
1.14688e-09
5.8997e-10
-2.74507e-10
-1.49187e-09
-3.09493e-09
-5.09938e-09
-7.49986e-09
-1.02675e-08
-1.33493e-08
-1.66689e-08
-2.01298e-08
-2.36204e-08
-2.70202e-08
-3.02071e-08
-3.30647e-08
-3.54901e-08
-3.74002e-08
-3.87364e-08
-3.94684e-08
-3.95945e-08
-3.91415e-08
-3.81614e-08
-3.67271e-08
-3.4927e-08
-3.28591e-08
-3.06242e-08
-2.83196e-08
-2.60345e-08
-2.38463e-08
-2.18165e-08
-1.99876e-08
-1.83823e-08
-1.70067e-08
-1.58539e-08
-1.49041e-08
-1.41238e-08
-1.34723e-08
-1.29095e-08
-1.23986e-08
-1.19007e-08
-1.13845e-08
-1.08308e-08
-1.02263e-08
-9.55989e-09
-8.83826e-09
-8.07069e-09
-7.26555e-09
-6.44925e-09
-5.63645e-09
-4.84052e-09
-4.08742e-09
-3.39342e-09
-2.73054e-09
-2.12131e-09
-1.61121e-09
-1.19876e-09
-8.71964e-10
-6.1832e-10
-4.2571e-10
-2.8282e-10
-1.79478e-10
-1.06823e-10
-5.75104e-11
-2.55233e-11
-6.43892e-12
3.08951e-12
5.40076e-12
1.20626e-12
7.34711e-22
-4.81403e-22
5.95262e-23
-6.46149e-23
-3.20788e-22
-6.7613e-22
-1.00365e-21
-1.2108e-21
-1.28082e-21
-1.24301e-21
-1.13363e-21
-9.82167e-22
-8.13201e-22
-6.4656e-22
-4.95856e-22
-3.68272e-22
-2.65775e-22
-1.86799e-22
-1.27863e-22
-8.48107e-23
-5.36665e-23
-3.11092e-23
-1.46514e-23
-2.58693e-24
6.18721e-24
1.23812e-23
1.64867e-23
1.88892e-23
1.99258e-23
1.99036e-23
1.91012e-23
1.77626e-23
1.60929e-23
1.42573e-23
1.23822e-23
1.05596e-23
8.85241e-24
7.2999e-24
5.92288e-24
4.72816e-24
3.7122e-24
2.86479e-24
2.17466e-24
1.63949e-24
1.27603e-24
1.09295e-24
9.09659e-25
-1.93118e-25
-4.86207e-24
-1.77674e-23
-4.01468e-23
-4.51167e-23
9.02625e-23
7.14105e-22
2.52566e-21
6.34073e-21
1.14095e-20
9.80207e-21
-2.75697e-20
-1.78835e-19
-6.14342e-19
-1.63688e-18
-3.64635e-18
-6.83775e-18
-1.02238e-17
-9.23748e-18
9.24568e-18
7.59326e-17
2.534e-16
6.55161e-16
1.46444e-15
2.93806e-15
5.36415e-15
8.91626e-15
1.33116e-14
1.71414e-14
1.67089e-14
4.212e-15
-3.48241e-14
-1.24757e-13
-3.03175e-13
-6.23211e-13
-1.15262e-12
-1.96608e-12
-3.12548e-12
-4.64132e-12
-6.40672e-12
-8.09541e-12
-9.01609e-12
-7.92023e-12
-2.76902e-12
9.52082e-12
3.33103e-11
7.43809e-11
1.39878e-10
2.37905e-10
3.76567e-10
5.62211e-10
7.96561e-10
1.07237e-09
1.36697e-09
1.63208e-09
1.78853e-09
1.7286e-09
1.30958e-09
3.56851e-10
-1.32878e-09
-3.95744e-09
-7.73034e-09
-1.28142e-08
-1.93117e-08
-2.72297e-08
-3.64501e-08
-4.67056e-08
-5.75645e-08
-6.84287e-08
-7.85467e-08
-8.70428e-08
-9.29616e-08
-9.53253e-08
-9.32014e-08
-8.57712e-08
-7.23967e-08
-5.26798e-08
-2.65054e-08
5.93114e-09
4.41196e-08
8.72528e-08
1.34265e-07
1.83892e-07
2.34735e-07
2.85341e-07
3.34275e-07
3.80184e-07
4.21853e-07
4.5826e-07
4.88621e-07
5.12403e-07
5.29313e-07
5.39274e-07
5.4239e-07
5.38948e-07
5.29413e-07
5.1438e-07
4.9449e-07
4.70358e-07
4.4268e-07
4.12276e-07
3.79903e-07
3.46171e-07
3.11732e-07
2.7742e-07
2.43742e-07
2.11106e-07
1.80199e-07
1.51414e-07
1.24929e-07
1.01111e-07
8.00102e-08
6.16874e-08
4.61732e-08
3.31918e-08
2.27113e-08
1.45646e-08
8.31475e-09
3.72282e-09
6.10514e-10
-1.33301e-09
-2.40914e-09
-2.8712e-09
-2.92162e-09
-2.71588e-09
-2.36853e-09
-1.95955e-09
-1.54182e-09
-1.14618e-09
-7.91698e-10
-4.83088e-10
-2.38537e-10
-4.06775e-11
1.12154e-20
3.24232e-22
1.55171e-21
1.03488e-20
2.28958e-20
3.40824e-20
4.11511e-20
4.36422e-20
4.25423e-20
3.9171e-20
3.45609e-20
2.94075e-20
2.42148e-20
1.93527e-20
1.50558e-20
1.14325e-20
8.49385e-21
6.18629e-21
4.42096e-21
3.09621e-21
2.11319e-21
1.38551e-21
8.44084e-22
4.37874e-22
1.31666e-22
-9.78068e-23
-2.65936e-22
-3.83582e-22
-4.59296e-22
-5.00511e-22
-5.1403e-22
-5.06103e-22
-4.82362e-22
-4.47717e-22
-4.06301e-22
-3.61465e-22
-3.15822e-22
-2.71326e-22
-2.29365e-22
-1.90856e-22
-1.56339e-22
-1.26053e-22
-9.99973e-23
-7.79624e-23
-5.95558e-23
-4.43351e-23
-3.24185e-23
-2.61886e-23
-3.30897e-23
-6.53725e-23
-1.2014e-22
-9.90919e-23
3.92811e-22
2.37128e-21
7.57489e-21
1.69704e-20
2.40907e-20
-3.61693e-21
-1.63991e-19
-6.79703e-19
-1.93713e-18
-4.34976e-18
-7.6446e-18
-8.73221e-18
3.29215e-18
5.7014e-17
2.15164e-16
5.9671e-16
1.39557e-15
2.86925e-15
5.23805e-15
8.38445e-15
1.11739e-14
1.01495e-14
-2.67836e-15
-4.31387e-14
-1.39167e-13
-3.35146e-13
-6.94083e-13
-1.29318e-12
-2.20541e-12
-3.45595e-12
-4.93884e-12
-6.2772e-12
-6.61155e-12
-4.30973e-12
3.38952e-12
2.07532e-11
5.38535e-11
1.10622e-10
2.00407e-10
3.32673e-10
5.14433e-10
7.45894e-10
1.01385e-09
1.28249e-09
1.48143e-09
1.49151e-09
1.12944e-09
1.34164e-10
-1.83884e-09
-5.1985e-09
-1.03702e-08
-1.77619e-08
-2.76827e-08
-4.02467e-08
-5.52618e-08
-7.21131e-08
-8.96557e-08
-1.06134e-07
-1.19146e-07
-1.25661e-07
-1.22122e-07
-1.04615e-07
-6.91156e-08
-1.18031e-08
7.05931e-08
1.80434e-07
3.18837e-07
4.85416e-07
6.78102e-07
8.93103e-07
1.12499e-06
1.36693e-06
1.61103e-06
1.84883e-06
2.07176e-06
2.27172e-06
2.44155e-06
2.57553e-06
2.66965e-06
2.72187e-06
2.73217e-06
2.70248e-06
2.63649e-06
2.53933e-06
2.4172e-06
2.27695e-06
2.12561e-06
1.97002e-06
1.81649e-06
1.67047e-06
1.5362e-06
1.41659e-06
1.31313e-06
1.2263e-06
1.15552e-06
1.09902e-06
1.05409e-06
1.01758e-06
9.86643e-07
9.58112e-07
9.28839e-07
8.96628e-07
8.59816e-07
8.17176e-07
7.68483e-07
7.139e-07
6.54019e-07
5.90174e-07
5.2435e-07
4.57873e-07
3.92538e-07
3.30511e-07
2.7264e-07
2.19825e-07
1.73317e-07
1.33597e-07
1.00551e-07
7.37277e-08
5.24814e-08
3.60691e-08
2.3721e-08
1.46932e-08
8.31144e-09
3.98802e-09
1.24898e-09
-2.79233e-10
-8.9523e-10
-6.62809e-10
-3.93585e-21
5.67634e-20
-1.08774e-19
-4.40614e-19
-7.37399e-19
-9.19513e-19
-9.88761e-19
-9.71359e-19
-9.00388e-19
-8.02681e-19
-6.95061e-19
-5.86952e-19
-4.84228e-19
-3.90874e-19
-3.09245e-19
-2.40211e-19
-1.835e-19
-1.38065e-19
-1.02429e-19
-7.49514e-20
-5.40152e-20
-3.8151e-20
-2.61144e-20
-1.69187e-20
-9.83127e-21
-4.33855e-21
-9.38259e-23
3.13682e-21
5.51971e-21
7.18497e-21
8.24483e-21
8.80203e-21
8.95246e-21
8.7847e-21
8.37876e-21
7.80485e-21
7.1228e-21
6.38202e-21
5.6221e-21
4.87371e-21
4.15965e-21
3.49604e-21
2.89335e-21
2.35748e-21
1.8907e-21
1.49242e-21
1.15883e-21
8.79927e-22
6.32324e-22
3.74748e-22
8.06667e-23
-9.67255e-23
6.3212e-22
4.49328e-21
1.55589e-20
3.65873e-20
5.39403e-20
-4.82099e-21
-3.56677e-19
-1.47596e-18
-4.09344e-18
-8.62401e-18
-1.29427e-17
-6.49923e-18
4.20622e-17
2.05912e-16
6.26338e-16
1.52478e-15
3.14522e-15
5.50648e-15
7.74612e-15
6.7225e-15
-5.53045e-15
-4.57969e-14
-1.449e-13
-3.52627e-13
-7.38304e-13
-1.37882e-12
-2.32005e-12
-3.49073e-12
-4.54217e-12
-4.58622e-12
-1.81554e-12
6.97866e-12
2.69128e-11
6.53597e-11
1.31811e-10
2.36743e-10
3.88784e-10
5.89322e-10
8.23679e-10
1.04815e-09
1.17274e-09
1.04046e-09
4.05521e-10
-1.08513e-09
-3.89986e-09
-8.60988e-09
-1.58427e-08
-2.61822e-08
-3.99778e-08
-5.70402e-08
-7.65038e-08
-9.64772e-08
-1.13771e-07
-1.2368e-07
-1.19891e-07
-9.45658e-08
-3.86553e-08
5.75202e-08
2.03429e-07
4.07247e-07
6.74618e-07
1.00735e-06
1.40221e-06
1.84993e-06
2.33461e-06
2.83368e-06
3.31837e-06
3.75489e-06
4.10618e-06
4.33414e-06
4.40214e-06
4.27767e-06
3.9349e-06
3.35681e-06
2.53701e-06
1.48059e-06
2.0427e-07
-1.26437e-06
-2.88829e-06
-4.62309e-06
-6.41936e-06
-8.22511e-06
-9.9881e-06
-1.16584e-05
-1.31916e-05
-1.455e-05
-1.57039e-05
-1.66313e-05
-1.73175e-05
-1.77545e-05
-1.79433e-05
-1.78926e-05
-1.76172e-05
-1.71326e-05
-1.6457e-05
-1.56169e-05
-1.46409e-05
-1.35559e-05
-1.23864e-05
-1.11661e-05
-9.92374e-06
-8.68191e-06
-7.46731e-06
-6.30753e-06
-5.21593e-06
-4.21202e-06
-3.31013e-06
-2.51514e-06
-1.8321e-06
-1.26019e-06
-7.95428e-07
-4.32217e-07
-1.59084e-07
3.568e-08
1.63632e-07
2.37752e-07
2.70844e-07
2.74442e-07
2.58302e-07
2.30249e-07
1.9624e-07
1.60549e-07
1.2604e-07
9.44255e-08
6.67056e-08
4.31903e-08
2.47102e-08
9.14869e-09
-1.2864e-18
-3.34681e-18
2.60898e-18
9.80864e-18
1.43777e-17
1.62751e-17
1.63659e-17
1.53628e-17
1.38189e-17
1.20924e-17
1.03746e-17
8.75156e-18
7.26415e-18
5.93623e-18
4.77985e-18
3.79591e-18
2.97631e-18
2.30658e-18
1.76853e-18
1.34251e-18
1.00905e-18
7.49987e-19
5.49177e-19
3.93025e-19
2.7068e-19
1.73959e-19
9.70105e-20
3.57945e-20
-1.2457e-20
-4.97184e-20
-7.75175e-20
-9.71527e-20
-1.09808e-19
-1.16598e-19
-1.18576e-19
-1.16723e-19
-1.11931e-19
-1.04996e-19
-9.66067e-20
-8.73459e-20
-7.76954e-20
-6.80424e-20
-5.86892e-20
-4.98631e-20
-4.17245e-20
-3.43764e-20
-2.78727e-20
-2.22315e-20
-1.7458e-20
-1.35787e-20
-1.06382e-20
-8.49454e-21
-6.03725e-21
5.71719e-22
1.99554e-20
6.2875e-20
1.19434e-19
8.43639e-20
-4.08321e-19
-2.2232e-18
-6.76899e-18
-1.49411e-17
-2.28096e-17
-1.02417e-17
8.20151e-17
3.86777e-16
1.1379e-15
2.62518e-15
4.91732e-15
7.04443e-15
5.15312e-15
-1.09444e-14
-6.3139e-14
-1.91493e-13
-4.58234e-13
-9.4043e-13
-1.69408e-12
-2.66132e-12
-3.48136e-12
-3.1623e-12
4.13432e-13
1.11224e-11
3.52286e-11
8.16624e-11
1.61317e-10
2.84363e-10
4.54237e-10
6.56745e-10
8.42898e-10
9.04948e-10
6.46903e-10
-2.46162e-10
-2.23131e-09
-5.90959e-09
-1.19868e-08
-2.1169e-08
-3.39673e-08
-5.03872e-08
-6.94898e-08
-8.88242e-08
-1.03739e-07
-1.0702e-07
-8.85878e-08
-3.54497e-08
6.77839e-08
2.37777e-07
4.90635e-07
8.39355e-07
1.29069e-06
1.84164e-06
2.47592e-06
3.1609e-06
3.84544e-06
4.45915e-06
4.91351e-06
5.10512e-06
4.9209e-06
4.24554e-06
2.97007e-06
1.00128e-06
-1.72895e-06
-5.25554e-06
-9.57376e-06
-1.46358e-05
-2.03506e-05
-2.65868e-05
-3.31792e-05
-3.99371e-05
-4.66561e-05
-5.313e-05
-5.91629e-05
-6.4581e-05
-6.92412e-05
-7.30392e-05
-7.59131e-05
-7.78408e-05
-7.88429e-05
-7.89792e-05
-7.83385e-05
-7.70326e-05
-7.51874e-05
-7.29305e-05
-7.03852e-05
-6.7665e-05
-6.4864e-05
-6.20545e-05
-5.92832e-05
-5.6581e-05
-5.39552e-05
-5.13843e-05
-4.88434e-05
-4.63154e-05
-4.37531e-05
-4.11257e-05
-3.84124e-05
-3.56142e-05
-3.2728e-05
-2.97696e-05
-2.67706e-05
-2.37682e-05
-2.08093e-05
-1.79424e-05
-1.52149e-05
-1.26756e-05
-1.03567e-05
-8.28221e-06
-6.47219e-06
-4.93278e-06
-3.65632e-06
-2.62463e-06
-1.81248e-06
-1.19092e-06
-7.29817e-07
-3.99905e-07
-1.74384e-07
-2.98043e-08
5.34082e-08
9.06678e-08
9.6552e-08
7.12683e-08
5.2199e-17
9.20069e-17
-2.9935e-17
-1.38312e-16
-1.93051e-16
-2.08475e-16
-2.02473e-16
-1.85593e-16
-1.64429e-16
-1.42693e-16
-1.22149e-16
-1.03404e-16
-8.6597e-17
-7.17389e-17
-5.87996e-17
-4.77023e-17
-3.83269e-17
-3.05191e-17
-2.41022e-17
-1.88909e-17
-1.47022e-17
-1.13622e-17
-8.7115e-18
-6.6089e-18
-4.93439e-18
-3.59066e-18
-2.50284e-18
-1.61607e-18
-8.91711e-19
-3.0281e-19
1.69873e-19
5.41033e-19
8.2291e-19
1.02653e-18
1.16232e-18
1.24024e-18
1.26984e-18
1.26011e-18
1.21932e-18
1.15497e-18
1.0737e-18
9.8128e-19
8.82614e-19
7.8181e-19
6.82219e-19
5.86504e-19
4.96695e-19
4.14253e-19
3.40099e-19
2.74622e-19
2.17662e-19
1.68651e-19
1.2753e-19
9.76223e-20
9.12694e-20
1.34e-19
2.46512e-19
3.49572e-19
-1.21284e-21
-2.1057e-18
-8.55337e-18
-2.22678e-17
-4.05904e-17
-3.75897e-17
7.38128e-17
4.99863e-16
1.60735e-15
3.81685e-15
7.03209e-15
9.01703e-15
1.88309e-15
-3.40228e-14
-1.3827e-13
-3.76278e-13
-8.31011e-13
-1.55516e-12
-2.44056e-12
-2.94431e-12
-1.60875e-12
4.64777e-12
2.13696e-11
5.71783e-11
1.23382e-10
2.31206e-10
3.84611e-10
5.66161e-10
7.13572e-10
6.85946e-10
2.22085e-10
-1.10063e-09
-3.88956e-09
-8.91401e-09
-1.69975e-08
-2.87782e-08
-4.42932e-08
-6.23564e-08
-7.97376e-08
-9.02069e-08
-8.3596e-08
-4.51484e-08
4.43699e-08
2.07454e-07
4.67929e-07
8.47048e-07
1.35815e-06
1.99987e-06
2.7485e-06
3.55023e-06
4.31451e-06
4.90975e-06
5.16283e-06
4.86358e-06
3.77503e-06
1.64969e-06
-1.74886e-06
-6.62035e-06
-1.31004e-05
-2.1234e-05
-3.09523e-05
-4.20575e-05
-5.42172e-05
-6.69694e-05
-7.974e-05
-9.18711e-05
-0.000102659
-0.0001114
-0.00011744
-0.000120222
-0.000119324
-0.000114493
-0.000105661
-9.29513e-05
-7.66698e-05
-5.72912e-05
-3.54431e-05
-1.18699e-05
1.26547e-05
3.73199e-05
6.13433e-05
8.39976e-05
0.000104609
0.000122588
0.000137479
0.000148961
0.000156863
0.000161117
0.000161738
0.000158899
0.000152854
0.000144042
0.000132868
0.000119753
0.000105317
9.01083e-05
7.46209e-05
5.93617e-05
4.48015e-05
3.13187e-05
1.92337e-05
8.76558e-06
5.0602e-08
-6.86771e-06
-1.20302e-05
-1.55451e-05
-1.75896e-05
-1.8378e-05
-1.81467e-05
-1.71435e-05
-1.56075e-05
-1.37535e-05
-1.17615e-05
-9.77274e-06
-7.88958e-06
-6.17899e-06
-4.67848e-06
-3.40179e-06
-2.34889e-06
-1.50684e-06
-8.75139e-07
-3.73887e-07
-1.13718e-15
-1.53388e-15
1.24532e-16
1.3554e-15
1.91442e-15
2.04311e-15
1.96238e-15
1.78584e-15
1.57689e-15
1.36852e-15
1.17561e-15
1.00248e-15
8.48913e-16
7.13645e-16
5.95448e-16
4.93125e-16
4.05436e-16
3.31061e-16
2.6861e-16
2.16664e-16
1.7383e-16
1.38773e-16
1.10247e-16
8.71051e-17
6.83246e-17
5.30195e-17
4.04562e-17
3.00563e-17
2.1386e-17
1.41322e-17
8.07337e-18
3.05033e-18
-1.05669e-18
-4.34524e-18
-6.9015e-18
-8.80627e-18
-1.01377e-17
-1.09718e-17
-1.13822e-17
-1.1439e-17
-1.12081e-17
-1.07499e-17
-1.01195e-17
-9.36577e-18
-8.53176e-18
-7.65475e-18
-6.76649e-18
-5.89345e-18
-5.05705e-18
-4.27398e-18
-3.5566e-18
-2.91352e-18
-2.34973e-18
-1.86469e-18
-1.44466e-18
-1.04748e-18
-5.93348e-19
-2.57895e-20
3.96623e-19
-6.65524e-19
-6.90237e-18
-2.49519e-17
-5.98201e-17
-9.4457e-17
-3.63861e-17
3.80419e-16
1.70278e-15
4.69494e-15
9.61997e-15
1.39104e-14
6.85204e-15
-3.97393e-14
-1.8315e-13
-5.14302e-13
-1.12994e-12
-2.02167e-12
-2.80045e-12
-2.15766e-12
2.9985e-12
1.86305e-11
5.4399e-11
1.23058e-10
2.36238e-10
3.93297e-10
5.59155e-10
6.27597e-10
3.69917e-10
-6.23538e-10
-2.98796e-09
-7.57502e-09
-1.53288e-08
-2.69683e-08
-4.23937e-08
-5.97614e-08
-7.4236e-08
-7.655e-08
-5.1662e-08
2.19961e-08
1.71989e-07
4.29168e-07
8.22166e-07
1.37009e-06
2.07113e-06
2.88914e-06
3.73908e-06
4.47359e-06
4.87336e-06
4.64465e-06
3.42699e-06
8.13643e-07
-3.61364e-06
-1.02362e-05
-1.93383e-05
-3.10411e-05
-4.52354e-05
-6.15235e-05
-7.91797e-05
-9.71354e-05
-0.000113996
-0.00012809
-0.000137557
-0.000140456
-0.000134905
-0.000119222
-9.20691e-05
-5.25659e-05
-3.93495e-07
6.41393e-05
0.00014009
0.000225945
0.000319672
0.000418845
0.000520788
0.000622736
0.00072198
0.000815866
0.000902166
0.000979068
0.00104519
0.00109967
0.00114213
0.0011725
0.00119106
0.00119837
0.00119521
0.00118255
0.00116114
0.00113185
0.00109535
0.00105257
0.00100416
0.000950709
0.000892835
0.000831326
0.000766873
0.000700268
0.000632442
0.000564337
0.000496971
0.000431351
0.000368476
0.000309263
0.00025451
0.000204886
0.000160826
0.00012256
9.0138e-05
6.34008e-05
4.19927e-05
2.5406e-05
1.30341e-05
4.22557e-06
-1.66993e-06
-5.26464e-06
-7.10739e-06
-7.66725e-06
-7.33603e-06
-6.41003e-06
-5.21657e-06
-3.57801e-06
1.64531e-14
1.76522e-14
1.30525e-15
-9.69035e-15
-1.46473e-14
-1.58849e-14
-1.53712e-14
-1.4073e-14
-1.2506e-14
-1.09315e-14
-9.47047e-15
-8.16104e-15
-7.00126e-15
-5.97773e-15
-5.07766e-15
-4.29005e-15
-3.60517e-15
-3.01387e-15
-2.50714e-15
-2.07606e-15
-1.71188e-15
-1.40623e-15
-1.15114e-15
-9.39165e-16
-7.63389e-16
-6.17514e-16
-4.95967e-16
-3.94011e-16
-3.07819e-16
-2.34442e-16
-1.71706e-16
-1.18043e-16
-7.23212e-17
-3.36971e-17
-1.49907e-18
2.48505e-17
4.58853e-17
6.21203e-17
7.40634e-17
8.2216e-17
8.70701e-17
8.91016e-17
8.87644e-17
8.64847e-17
8.26576e-17
7.7645e-17
7.1775e-17
6.53417e-17
5.86056e-17
5.17939e-17
4.51002e-17
3.86844e-17
3.26716e-17
2.71531e-17
2.21921e-17
1.78441e-17
1.42011e-17
1.14294e-17
9.65468e-18
8.29592e-18
4.22953e-18
-1.13029e-17
-5.40247e-17
-1.34694e-16
-2.07464e-16
-3.97e-17
1.00921e-15
4.16362e-15
1.08219e-14
2.0261e-14
2.32219e-14
-1.09812e-14
-1.5295e-13
-5.25182e-13
-1.27019e-12
-2.39469e-12
-3.35865e-12
-2.25538e-12
5.47784e-12
2.85239e-11
8.02254e-11
1.75707e-10
3.21212e-10
4.89548e-10
5.75469e-10
3.28919e-10
-7.24286e-10
-3.3427e-09
-8.54556e-09
-1.74015e-08
-3.04938e-08
-4.69278e-08
-6.28044e-08
-6.9242e-08
-5.02856e-08
1.86013e-08
1.70391e-07
4.43324e-07
8.73293e-07
1.48062e-06
2.25318e-06
3.1236e-06
3.94459e-06
4.46665e-06
4.32352e-06
3.03234e-06
1.54235e-08
-5.35056e-06
-1.36552e-05
-2.53452e-05
-4.05931e-05
-5.91548e-05
-8.0234e-05
-0.000102374
-0.0001234
-0.000140424
-0.000149933
-0.000147973
-0.000130415
-9.33007e-05
-3.31882e-05
5.24688e-05
0.000164988
0.000304191
0.000468248
0.000653661
0.000855409
0.0010672
0.00128178
0.00149149
0.0016887
0.00186623
0.0020178
0.00213834
0.00222456
0.00227507
0.00228954
0.00226974
0.00221872
0.00214073
0.00204153
0.00192739
0.00180423
0.00167809
0.00155471
0.00143968
0.00133661
0.00124833
0.00117653
0.00112159
0.00108249
0.0010574
0.00104357
0.00103751
0.00103558
0.00103407
0.00102948
0.00101882
0.000999754
0.000970733
0.00093106
0.00088088
0.000821123
0.000753387
0.000679759
0.00060261
0.000524449
0.000447711
0.000374557
0.00030674
0.000245527
0.000191685
0.000145508
0.000106893
7.54285e-05
5.04891e-05
3.13527e-05
1.72475e-05
7.49056e-06
9.51332e-07
-1.75922e-13
-1.51799e-13
-2.78442e-14
5.15296e-14
8.91415e-14
1.00666e-13
9.96466e-14
9.27802e-14
8.36472e-14
7.40857e-14
6.50077e-14
5.67686e-14
4.94172e-14
4.28829e-14
3.70829e-14
3.19457e-14
2.74111e-14
2.34272e-14
1.99459e-14
1.69207e-14
1.43065e-14
1.20595e-14
1.01378e-14
8.5016e-15
7.1131e-15
5.93664e-15
4.93889e-15
4.08957e-15
3.36218e-15
2.73478e-15
2.19002e-15
1.71485e-15
1.29965e-15
9.37467e-16
6.23116e-16
3.52581e-16
1.22498e-16
-7.01691e-17
-2.28317e-16
-3.54812e-16
-4.52531e-16
-5.2436e-16
-5.73174e-16
-6.01796e-16
-6.12966e-16
-6.09306e-16
-5.93307e-16
-5.67309e-16
-5.335e-16
-4.93908e-16
-4.50396e-16
-4.04662e-16
-3.5822e-16
-3.12396e-16
-2.68315e-16
-2.26886e-16
-1.88766e-16
-1.54284e-16
-1.23335e-16
-9.55012e-17
-7.11542e-17
-5.49652e-17
-6.27279e-17
-1.2686e-16
-2.78829e-16
-4.53925e-16
-2.32525e-16
1.61942e-15
7.53088e-15
2.02673e-14
3.80418e-14
4.10039e-14
-3.47859e-14
-3.30176e-13
-1.06755e-12
-2.43236e-12
-4.14892e-12
-4.49842e-12
1.3925e-12
2.36803e-11
7.87968e-11
1.8546e-10
3.48679e-10
5.21905e-10
5.38153e-10
1.03644e-11
-1.77378e-09
-5.89167e-09
-1.3625e-08
-2.58968e-08
-4.20752e-08
-5.79748e-08
-6.31169e-08
-3.77421e-08
4.93002e-08
2.39952e-07
5.81241e-07
1.11203e-06
1.84053e-06
2.71378e-06
3.58005e-06
4.14906e-06
3.96141e-06
2.3786e-06
-1.39205e-06
-8.22366e-06
-1.89382e-05
-3.41151e-05
-5.38483e-05
-7.74755e-05
-0.000103311
-0.000128434
-0.000148574
-0.000158153
-0.000150524
-0.000118417
-5.45745e-05
4.74823e-05
0.00019261
0.000383107
0.00061799
0.000892454
0.00119763
0.00152073
0.00184545
0.00215287
0.00242265
0.00263465
0.00277045
0.00281417
0.00275412
0.00258344
0.00230053
0.00190881
0.0014166
0.000840697
0.000196522
-0.000496429
-0.00121741
-0.00194565
-0.0026593
-0.00333795
-0.00396513
-0.00452593
-0.00500685
-0.00539722
-0.00569016
-0.00588138
-0.00596855
-0.00595242
-0.00583735
-0.00562956
-0.00533776
-0.00497334
-0.00454915
-0.00407939
-0.00357929
-0.00306419
-0.00254922
-0.00204854
-0.0015749
-0.00113913
-0.000749759
-0.000412849
-0.000131712
9.29558e-05
0.000262832
0.00038173
0.00045517
0.000489848
0.000493057
0.000472138
0.000434026
0.000384901
0.000330001
0.000273497
0.00021868
0.000167628
0.000123348
8.01814e-05
1.48035e-12
1.03167e-12
2.74254e-13
-2.00435e-13
-4.42409e-13
-5.32741e-13
-5.4644e-13
-5.21934e-13
-4.80441e-13
-4.33233e-13
-3.86346e-13
-3.42637e-13
-3.03004e-13
-2.6734e-13
-2.35299e-13
-2.06533e-13
-1.80751e-13
-1.57708e-13
-1.37193e-13
-1.19006e-13
-1.02955e-13
-8.88511e-14
-7.65107e-14
-6.57563e-14
-5.64169e-14
-4.8328e-14
-4.13304e-14
-3.52706e-14
-3.0005e-14
-2.54042e-14
-2.13583e-14
-1.77786e-14
-1.45967e-14
-1.17619e-14
-9.23688e-15
-6.9942e-15
-5.01292e-15
-3.27606e-15
-1.76874e-15
-4.7706e-16
6.12692e-16
1.5144e-15
2.24225e-15
2.81075e-15
3.23455e-15
3.52827e-15
3.70634e-15
3.78287e-15
3.77158e-15
3.6857e-15
3.53797e-15
3.34062e-15
3.10533e-15
2.84315e-15
2.5644e-15
2.27851e-15
1.99393e-15
1.71799e-15
1.45692e-15
1.21597e-15
9.99488e-16
8.09918e-16
6.43386e-16
4.78937e-16
2.63938e-16
-7.84663e-17
-5.38703e-16
-6.48675e-16
1.30374e-15
9.2217e-15
2.86692e-14
6.02892e-14
7.87741e-14
-1.11325e-14
-4.34251e-13
-1.55934e-12
-3.6941e-12
-6.32422e-12
-6.36039e-12
4.76879e-12
4.41244e-11
1.36451e-10
3.00846e-10
5.10682e-10
6.10825e-10
1.87116e-10
-1.58038e-09
-5.97532e-09
-1.44999e-08
-2.79986e-08
-4.4781e-08
-5.7524e-08
-4.92075e-08
1.07825e-08
1.68062e-07
4.78639e-07
9.94098e-07
1.73296e-06
2.63684e-06
3.51406e-06
3.97587e-06
3.38626e-06
8.46416e-07
-4.75761e-06
-1.46162e-05
-2.97466e-05
-5.06296e-05
-7.67571e-05
-0.000106141
-0.000134864
-0.00015678
-0.000163469
-0.00014455
-8.8411e-05
1.66125e-05
0.000180658
0.000410451
0.000707353
0.00106582
0.00147246
0.00190513
0.00233336
0.00271951
0.00302091
0.0031926
0.00319045
0.00297441
0.00251234
0.00178582
0.000786081
-0.000480749
-0.0019948
-0.00372341
-0.00562327
-0.00764569
-0.00972591
-0.0118093
-0.0138406
-0.0157689
-0.0175504
-0.0191496
-0.0205418
-0.0217126
-0.0226563
-0.0233734
-0.0238703
-0.0241582
-0.0242504
-0.0241596
-0.0238981
-0.0234776
-0.022908
-0.0221979
-0.021356
-0.0203908
-0.0193119
-0.0181309
-0.0168614
-0.0155199
-0.0141255
-0.0126994
-0.0112648
-0.00984597
-0.00846714
-0.00715141
-0.00591961
-0.00478938
-0.00377431
-0.00288311
-0.00211943
-0.00148193
-0.000964903
-0.000559129
-0.000252839
-3.27881e-05
0.000114698
0.000203149
0.000244428
0.000252709
0.000226414
-1.02116e-11
-5.80471e-12
-1.91496e-12
5.06716e-13
1.83845e-12
2.42006e-12
2.59912e-12
2.56255e-12
2.41862e-12
2.22735e-12
2.02301e-12
1.82427e-12
1.63948e-12
1.47034e-12
1.31616e-12
1.17575e-12
1.04798e-12
9.31911e-13
8.26748e-13
7.31796e-13
6.46371e-13
5.69798e-13
5.01408e-13
4.40535e-13
3.86525e-13
3.38739e-13
2.9655e-13
2.5933e-13
2.26458e-13
1.97329e-13
1.71383e-13
1.48137e-13
1.27192e-13
1.08238e-13
9.10423e-14
7.54324e-14
6.12833e-14
4.85017e-14
3.70143e-14
2.67592e-14
1.76803e-14
9.72313e-15
2.83226e-15
-3.05006e-15
-7.98422e-15
-1.20329e-14
-1.52602e-14
-1.77315e-14
-1.95123e-14
-2.06683e-14
-2.12644e-14
-2.13653e-14
-2.10355e-14
-2.0339e-14
-1.93393e-14
-1.80991e-14
-1.66796e-14
-1.51395e-14
-1.35338e-14
-1.19131e-14
-1.03215e-14
-8.79619e-15
-7.36659e-15
-6.05827e-15
-4.90449e-15
-3.96887e-15
-3.36139e-15
-3.17118e-15
-3.12862e-15
-1.7126e-15
5.36506e-15
2.61073e-14
6.79793e-14
1.17679e-13
8.8803e-14
-2.68963e-13
-1.44776e-12
-4.04173e-12
-7.91581e-12
-9.95351e-12
1.07321e-13
4.44894e-11
1.56923e-10
3.62771e-10
6.16326e-10
6.71263e-10
-1.12431e-10
-2.94016e-09
-9.49511e-09
-2.11517e-08
-3.69036e-08
-4.95294e-08
-4.01562e-08
2.72738e-08
2.08142e-07
5.70308e-07
1.17145e-06
2.01446e-06
2.97541e-06
3.70721e-06
3.54263e-06
1.43078e-06
-4.04023e-06
-1.44756e-05
-3.13145e-05
-5.52581e-05
-8.55122e-05
-0.000118938
-0.00014927
-0.000166612
-0.000157444
-0.00010536
7.33792e-06
0.000197173
0.000476313
0.000849007
0.00130805
0.00183165
0.00238036
0.00290022
0.00332253
0.00356827
0.00355384
0.00319806
0.00242967
0.00119451
-0.000539004
-0.00277647
-0.00548558
-0.00861262
-0.0120757
-0.0157718
-0.0195832
-0.0233845
-0.0270491
-0.0304586
-0.0335084
-0.0361136
-0.0382121
-0.039767
-0.0407677
-0.0412302
-0.0411949
-0.0407227
-0.0398899
-0.0387832
-0.0374933
-0.036109
-0.034711
-0.033367
-0.0321276
-0.0310247
-0.0300709
-0.0292598
-0.0285692
-0.0279641
-0.0274012
-0.0268331
-0.0262125
-0.0254968
-0.0246508
-0.0236496
-0.0224806
-0.0211438
-0.0196516
-0.018028
-0.0163062
-0.0145263
-0.0127319
-0.0109667
-0.00927132
-0.00768101
-0.00622357
-0.0049184
-0.00377657
-0.0028013
-0.00198995
-0.0013334
-0.000826558
-0.000417564
5.94796e-11
2.82978e-11
1.07477e-11
-1.95379e-13
-6.63513e-12
-9.79379e-12
-1.10862e-11
-1.13127e-11
-1.0962e-11
-1.03164e-11
-9.54492e-12
-8.74839e-12
-7.98251e-12
-7.26688e-12
-6.60432e-12
-5.99256e-12
-5.42816e-12
-4.90798e-12
-4.4295e-12
-3.99059e-12
-3.58922e-12
-3.22333e-12
-2.89081e-12
-2.58952e-12
-2.31725e-12
-2.07183e-12
-1.85107e-12
-1.65281e-12
-1.47481e-12
-1.31474e-12
-1.17029e-12
-1.03928e-12
-9.19786e-13
-8.1024e-13
-7.09394e-13
-6.16316e-13
-5.3033e-13
-4.5095e-13
-3.77824e-13
-3.1069e-13
-2.49338e-13
-1.93588e-13
-1.43268e-13
-9.8204e-14
-5.82101e-14
-2.30869e-14
7.37758e-15
3.3408e-14
5.52395e-14
7.31144e-14
8.72806e-14
9.79911e-14
1.05504e-13
1.10085e-13
1.1201e-13
1.11563e-13
1.0904e-13
1.04748e-13
9.89953e-14
9.20967e-14
8.43606e-14
7.60853e-14
6.75534e-14
5.90266e-14
5.07352e-14
4.28654e-14
3.55323e-14