/*--------------------------------*- C++ -*----------------------------------*\
| =========                 |                                                 |
| \\      /  F ield         | OpenFOAM: The Open Source CFD Toolbox           |
|  \\    /   O peration     | Version:  4.1                                   |
|   \\  /    A nd           | Web:      www.OpenFOAM.org                      |
|    \\/     M anipulation  |                                                 |
\*---------------------------------------------------------------------------*/
FoamFile
{
    version     2.0;
    format      ascii;
    class       volScalarField;
    location    "0.06";
    object      T;
}
// * * * * * * * * * * * * * * * * * * * * * * * * * * * * * * * * * * * * * //

dimensions      [0 0 0 1 0 0 0];

internalField   nonuniform List<scalar> 
12225
(
0.625082
0.501659
0.482429
0.479445
0.478893
0.478746
0.478693
0.478669
0.478656
0.478646
0.478637
0.47862
0.478579
0.478476
0.478218
0.47758
0.475982
0.471912
0.617081
0.498208
0.480748
0.478495
0.478335
0.47841
0.478486
0.478541
0.478578
0.478601
0.478613
0.47861
0.478579
0.478486
0.478242
0.477636
0.476158
0.472565
0.621282
0.500687
0.482151
0.479347
0.478884
0.478769
0.478724
0.4787
0.478684
0.478673
0.478661
0.478643
0.478603
0.478508
0.478276
0.477721
0.476434
0.473585
0.621277
0.500416
0.481761
0.479003
0.478628
0.478587
0.478593
0.478605
0.478616
0.478623
0.478625
0.478617
0.478587
0.478504
0.478299
0.477818
0.476754
0.474578
0.621238
0.500487
0.481847
0.479071
0.47869
0.478643
0.47864
0.478643
0.478645
0.478647
0.478644
0.478634
0.478604
0.478528
0.478349
0.477947
0.477101
0.475494
0.621177
0.50051
0.481888
0.479083
0.478687
0.478637
0.478634
0.478637
0.478641
0.478643
0.478642
0.478633
0.478607
0.478543
0.478395
0.478072
0.477427
0.476273
0.621178
0.500547
0.481941
0.479115
0.478704
0.47865
0.478645
0.478646
0.478648
0.47865
0.478648
0.47864
0.478619
0.478565
0.478446
0.478198
0.477723
0.476914
0.621179
0.500558
0.481969
0.479137
0.478717
0.478659
0.478652
0.478652
0.478654
0.478654
0.478653
0.478646
0.478628
0.478583
0.478487
0.478294
0.477936
0.477345
0.621177
0.500563
0.481988
0.479156
0.478731
0.478669
0.47866
0.478659
0.478659
0.47866
0.478658
0.478652
0.478636
0.4786
0.478523
0.478372
0.4781
0.477662
0.621174
0.500565
0.482002
0.479173
0.478745
0.47868
0.478669
0.478667
0.478667
0.478666
0.478664
0.478659
0.478646
0.478617
0.478558
0.478445
0.478248
0.477936
0.621171
0.500564
0.482012
0.479188
0.478759
0.478692
0.47868
0.478676
0.478675
0.478673
0.478671
0.478666
0.478656
0.478635
0.478591
0.478511
0.478375
0.478164
0.621167
0.500561
0.482017
0.479198
0.478771
0.478704
0.47869
0.478686
0.478683
0.478681
0.478679
0.478675
0.478667
0.478652
0.478622
0.478568
0.478479
0.478344
0.621164
0.500557
0.482019
0.479205
0.47878
0.478714
0.4787
0.478696
0.478692
0.47869
0.478688
0.478684
0.478678
0.478668
0.478648
0.478614
0.478559
0.478479
0.621161
0.500553
0.482019
0.479209
0.478786
0.47872
0.478708
0.478704
0.478701
0.478698
0.478696
0.478693
0.478689
0.478682
0.47867
0.47865
0.478618
0.478573
0.621158
0.500549
0.482017
0.47921
0.478789
0.478725
0.478713
0.47871
0.478708
0.478706
0.478704
0.478701
0.478698
0.478693
0.478686
0.478675
0.478658
0.478636
0.621156
0.500546
0.482015
0.479209
0.47879
0.478728
0.478717
0.478714
0.478712
0.47871
0.478709
0.478708
0.478706
0.478702
0.478698
0.478692
0.478684
0.478673
0.621154
0.500544
0.482013
0.479208
0.47879
0.478728
0.478718
0.478716
0.478714
0.478714
0.478712
0.478711
0.47871
0.478708
0.478706
0.478702
0.478698
0.478693
0.621154
0.500543
0.482012
0.479208
0.47879
0.478728
0.478718
0.478715
0.478714
0.478714
0.478713
0.478712
0.478711
0.478709
0.478707
0.478705
0.478703
0.478702
0.621154
0.500543
0.482012
0.479207
0.478789
0.478728
0.478718
0.478714
0.478712
0.478712
0.47871
0.478709
0.478708
0.478707
0.478706
0.478704
0.478702
0.478702
0.621154
0.500544
0.482012
0.479207
0.478788
0.478725
0.478715
0.478711
0.478709
0.478707
0.478706
0.478705
0.478704
0.478703
0.478702
0.478701
0.4787
0.4787
0.621154
0.500545
0.482014
0.479206
0.478784
0.47872
0.478709
0.478705
0.478703
0.478701
0.478699
0.478698
0.478697
0.478697
0.478696
0.478695
0.478694
0.478694
0.621154
0.500547
0.482015
0.479204
0.47878
0.478714
0.478702
0.478698
0.478696
0.478694
0.478693
0.478692
0.478692
0.478691
0.478691
0.47869
0.478689
0.47869
0.621152
0.500551
0.482014
0.479195
0.478767
0.478701
0.478689
0.478685
0.478684
0.478683
0.478683
0.478682
0.478682
0.478683
0.478682
0.478682
0.478682
0.478683
0.621147
0.500559
0.482014
0.479187
0.478759
0.478694
0.478684
0.478681
0.478681
0.47868
0.47868
0.47868
0.478681
0.478681
0.478681
0.478681
0.478681
0.478682
0.621134
0.500551
0.481983
0.479149
0.478725
0.478665
0.478657
0.478657
0.478658
0.47866
0.478662
0.478664
0.478665
0.478667
0.478669
0.47867
0.478671
0.478673
0.621195
0.500594
0.48198
0.479154
0.478749
0.478696
0.478689
0.478687
0.478686
0.478685
0.478684
0.478682
0.478681
0.47868
0.47868
0.47868
0.478679
0.47868
0.621276
0.500532
0.481808
0.478971
0.478582
0.478548
0.478561
0.47858
0.478597
0.478611
0.478622
0.478631
0.478639
0.478645
0.478651
0.478655
0.478659
0.478661
0.621626
0.501078
0.482445
0.479563
0.479064
0.478923
0.47885
0.478804
0.478771
0.478747
0.47873
0.478716
0.478707
0.4787
0.478695
0.478691
0.47869
0.478684
0.617042
0.497852
0.480426
0.478232
0.478138
0.478261
0.478372
0.478454
0.478512
0.478553
0.478582
0.478604
0.47862
0.478632
0.478642
0.47865
0.478659
0.478657
0.625111
0.502056
0.482622
0.479575
0.479005
0.478839
0.47877
0.478733
0.478711
0.478697
0.478687
0.47868
0.478676
0.478673
0.478671
0.478671
0.478674
0.478662
0.281709
0.281696
0.281653
0.281593
0.28152
0.281431
0.281327
0.281209
0.281074
0.280925
0.280764
0.28059
0.280403
0.280205
0.279996
0.279776
0.279548
0.279311
0.279066
0.278816
0.27856
0.2783
0.278037
0.277773
0.277508
0.277244
0.276982
0.276723
0.276469
0.27622
0.275978
0.275745
0.275521
0.275307
0.275105
0.274916
0.274741
0.274581
0.274436
0.274308
0.274198
0.274107
0.274035
0.273982
0.27395
0.27394
0.27395
0.273982
0.274037
0.274114
0.274213
0.274335
0.274479
0.274646
0.274835
0.275046
0.275278
0.275532
0.275807
0.276101
0.276416
0.276749
0.277101
0.27747
0.277856
0.278258
0.278676
0.279108
0.279553
0.280012
0.280482
0.280964
0.281455
0.281957
0.282466
0.282984
0.283508
0.284039
0.284575
0.285116
0.28566
0.286208
0.286757
0.287309
0.287861
0.288414
0.288965
0.289516
0.290065
0.290611
0.291155
0.291694
0.29223
0.29276
0.293285
0.293805
0.294317
0.294824
0.295322
0.295814
0.296297
0.296772
0.297238
0.297695
0.298144
0.298583
0.299012
0.299431
0.299841
0.30024
0.300629
0.301008
0.301376
0.301733
0.302079
0.302413
0.302736
0.303048
0.303347
0.303635
0.30391
0.304173
0.304422
0.304659
0.304883
0.305093
0.30529
0.305473
0.305641
0.305795
0.305935
0.306059
0.306169
0.306262
0.306341
0.306403
0.306448
0.306478
0.30649
0.306486
0.306464
0.306424
0.306366
0.306291
0.306196
0.306083
0.305951
0.305799
0.305628
0.305438
0.305227
0.304996
0.304744
0.304472
0.304179
0.303865
0.303529
0.303172
0.302793
0.302393
0.30197
0.301524
0.301061
0.300562
0.300041
0.299498
0.298922
0.298325
0.297707
0.297067
0.296405
0.295722
0.295017
0.294292
0.293548
0.292786
0.29202
0.291223
0.290551
0.289369
0.282252
0.282232
0.282199
0.28215
0.282084
0.282002
0.281905
0.281791
0.281661
0.281514
0.281352
0.281176
0.280988
0.280787
0.280575
0.280352
0.280121
0.27988
0.279633
0.27938
0.279121
0.278859
0.278594
0.278327
0.27806
0.277793
0.277529
0.277268
0.277012
0.276761
0.276518
0.276282
0.276056
0.275841
0.275637
0.275446
0.275268
0.275106
0.274959
0.274829
0.274717
0.274623
0.274548
0.274493
0.274459
0.274445
0.274453
0.274483
0.274534
0.274608
0.274705
0.274823
0.274965
0.275128
0.275314
0.275521
0.27575
0.276001
0.276272
0.276563
0.276874
0.277203
0.277551
0.277917
0.2783
0.278699
0.279112
0.279541
0.279983
0.280438
0.280905
0.281384
0.281872
0.28237
0.282877
0.283391
0.283913
0.28444
0.284974
0.285511
0.286053
0.286598
0.287145
0.287694
0.288244
0.288794
0.289344
0.289892
0.290439
0.290983
0.291525
0.292063
0.292596
0.293125
0.293648
0.294166
0.294677
0.295182
0.295679
0.296168
0.29665
0.297123
0.297588
0.298044
0.298491
0.298929
0.299357
0.299775
0.300183
0.300581
0.300969
0.301346
0.301712
0.302068
0.302412
0.302745
0.303066
0.303376
0.303674
0.30396
0.304233
0.304494
0.304742
0.304977
0.305199
0.305407
0.305602
0.305782
0.305949
0.306101
0.306238
0.30636
0.306467
0.306558
0.306634
0.306693
0.306736
0.306763
0.306773
0.306765
0.30674
0.306698
0.306637
0.306558
0.306461
0.306344
0.306209
0.306054
0.30588
0.305685
0.305471
0.305236
0.304981
0.304704
0.304407
0.304089
0.303749
0.303387
0.303003
0.302598
0.302169
0.301718
0.301248
0.300749
0.30023
0.299694
0.29913
0.298543
0.297934
0.297303
0.29665
0.295974
0.295277
0.294559
0.293823
0.293068
0.292309
0.291527
0.290831
0.289831
0.283352
0.283312
0.283268
0.283213
0.283143
0.283055
0.282951
0.282829
0.282692
0.282539
0.282372
0.282191
0.281997
0.281791
0.281574
0.281348
0.281112
0.280868
0.280618
0.280361
0.2801
0.279835
0.279567
0.279298
0.279028
0.27876
0.278493
0.27823
0.277972
0.277719
0.277473
0.277235
0.277006
0.276788
0.276581
0.276387
0.276207
0.276041
0.275891
0.275757
0.275641
0.275543
0.275465
0.275405
0.275366
0.275348
0.275351
0.275375
0.275422
0.27549
0.275581
0.275694
0.275829
0.275987
0.276167
0.276368
0.276591
0.276836
0.2771
0.277385
0.27769
0.278014
0.278356
0.278716
0.279092
0.279485
0.279893
0.280316
0.280753
0.281203
0.281665
0.282138
0.282622
0.283115
0.283617
0.284128
0.284645
0.285169
0.285699
0.286234
0.286773
0.287315
0.28786
0.288407
0.288956
0.289505
0.290053
0.290602
0.291148
0.291693
0.292235
0.292773
0.293308
0.293838
0.294363
0.294882
0.295396
0.295903
0.296402
0.296895
0.297379
0.297856
0.298324
0.298783
0.299233
0.299674
0.300106
0.300528
0.30094
0.301341
0.301733
0.302114
0.302484
0.302843
0.303192
0.303529
0.303854
0.304168
0.304469
0.304759
0.305036
0.305301
0.305552
0.305791
0.306016
0.306228
0.306425
0.306609
0.306779
0.306933
0.307073
0.307198
0.307308
0.307401
0.307479
0.307541
0.307586
0.307614
0.307625
0.307619
0.307596
0.307554
0.307494
0.307416
0.307319
0.307203
0.307067
0.306912
0.306738
0.306543
0.306328
0.306092
0.305836
0.305558
0.30526
0.30494
0.304598
0.304234
0.303848
0.30344
0.30301
0.302558
0.302084
0.301585
0.301066
0.300528
0.299966
0.29938
0.298772
0.298142
0.297489
0.296814
0.296117
0.295399
0.294662
0.293906
0.293143
0.292357
0.291634
0.290724
0.284985
0.284927
0.284873
0.284812
0.284733
0.284637
0.284523
0.284393
0.284247
0.284087
0.283912
0.283724
0.283524
0.283312
0.28309
0.282858
0.282617
0.282368
0.282112
0.281851
0.281585
0.281316
0.281044
0.28077
0.280497
0.280224
0.279954
0.279687
0.279424
0.279167
0.278917
0.278675
0.278442
0.278219
0.278007
0.277808
0.277622
0.277451
0.277295
0.277156
0.277033
0.276929
0.276843
0.276777
0.27673
0.276704
0.276699
0.276716
0.276754
0.276814
0.276896
0.277001
0.277127
0.277276
0.277446
0.277639
0.277852
0.278087
0.278343
0.278618
0.278913
0.279228
0.279561
0.279911
0.280279
0.280663
0.281062
0.281476
0.281905
0.282346
0.2828
0.283266
0.283742
0.284229
0.284724
0.285228
0.28574
0.286258
0.286783
0.287313
0.287848
0.288386
0.288928
0.289472
0.290019
0.290566
0.291113
0.291661
0.292207
0.292752
0.293295
0.293835
0.294371
0.294904
0.295431
0.295954
0.296471
0.296982
0.297486
0.297983
0.298472
0.298954
0.299427
0.299892
0.300348
0.300795
0.301233
0.301661
0.302079
0.302487
0.302885
0.303273
0.30365
0.304016
0.304371
0.304715
0.305047
0.305368
0.305676
0.305973
0.306256
0.306528
0.306786
0.307031
0.307262
0.30748
0.307684
0.307874
0.308049
0.30821
0.308355
0.308485
0.3086
0.308698
0.308781
0.308847
0.308896
0.308929
0.308944
0.308941
0.308921
0.308882
0.308825
0.308749
0.308654
0.30854
0.308406
0.308253
0.308079
0.307885
0.307671
0.307436
0.30718
0.306902
0.306603
0.306282
0.305939
0.305575
0.305188
0.304779
0.304348
0.303894
0.303418
0.302918
0.302397
0.301855
0.30129
0.300703
0.300092
0.299459
0.298804
0.298126
0.297426
0.296705
0.295964
0.295203
0.294431
0.293636
0.292891
0.292017
0.287148
0.287079
0.287017
0.286948
0.286862
0.286757
0.286635
0.286496
0.286341
0.286172
0.285989
0.285792
0.285584
0.285364
0.285134
0.284894
0.284646
0.284391
0.284129
0.283861
0.283589
0.283314
0.283036
0.282757
0.282478
0.2822
0.281924
0.281651
0.281383
0.28112
0.280864
0.280616
0.280376
0.280147
0.279929
0.279723
0.27953
0.279351
0.279187
0.27904
0.278909
0.278796
0.278701
0.278625
0.278569
0.278533
0.278518
0.278524
0.278551
0.2786
0.278671
0.278763
0.278878
0.279015
0.279173
0.279353
0.279555
0.279777
0.28002
0.280284
0.280566
0.280868
0.281189
0.281527
0.281883
0.282255
0.282643
0.283046
0.283463
0.283894
0.284337
0.284792
0.285259
0.285736
0.286222
0.286718
0.287221
0.287732
0.288249
0.288773
0.289302
0.289835
0.290372
0.290912
0.291454
0.291998
0.292544
0.29309
0.293635
0.29418
0.294723
0.295264
0.295802
0.296337
0.296868
0.297394
0.297915
0.29843
0.298939
0.299441
0.299936
0.300424
0.300903
0.301375
0.301838
0.302292
0.302737
0.303172
0.303598
0.304014
0.30442
0.304816
0.305201
0.305575
0.305939
0.306291
0.306631
0.30696
0.307277
0.307581
0.307874
0.308153
0.308419
0.308672
0.308912
0.309137
0.309349
0.309546
0.309728
0.309896
0.310048
0.310185
0.310306
0.31041
0.310499
0.31057
0.310625
0.310662
0.310682
0.310684
0.310667
0.310632
0.310579
0.310506
0.310414
0.310302
0.31017
0.310019
0.309847
0.309654
0.30944
0.309205
0.308949
0.308671
0.308372
0.308051
0.307707
0.307342
0.306953
0.306543
0.306109
0.305653
0.305175
0.304673
0.304149
0.303604
0.303036
0.302445
0.301831
0.301195
0.300536
0.299854
0.299151
0.298425
0.297679
0.296911
0.296131
0.295326
0.294564
0.293694
0.289856
0.28978
0.289711
0.289635
0.289541
0.289428
0.289296
0.289148
0.288984
0.288805
0.288612
0.288406
0.288188
0.287959
0.28772
0.287472
0.287215
0.286951
0.286681
0.286406
0.286126
0.285843
0.285558
0.285272
0.284985
0.2847
0.284417
0.284137
0.283861
0.283591
0.283327
0.283071
0.282824
0.282586
0.282359
0.282144
0.281942
0.281754
0.28158
0.281422
0.281281
0.281157
0.281051
0.280963
0.280895
0.280847
0.280819
0.280811
0.280825
0.28086
0.280917
0.280996
0.281096
0.281218
0.281362
0.281527
0.281713
0.28192
0.282148
0.282396
0.282663
0.28295
0.283255
0.283579
0.283919
0.284277
0.28465
0.285038
0.285442
0.285859
0.286289
0.286731
0.287185
0.28765
0.288124
0.288609
0.289101
0.289602
0.29011
0.290625
0.291145
0.291671
0.292201
0.292735
0.293272
0.293812
0.294354
0.294897
0.29544
0.295983
0.296526
0.297067
0.297606
0.298143
0.298676
0.299205
0.29973
0.300249
0.300763
0.30127
0.301771
0.302265
0.302751
0.303229
0.303699
0.30416
0.304613
0.305057
0.305491
0.305915
0.30633
0.306734
0.307128
0.307511
0.307884
0.308245
0.308594
0.308933
0.309259
0.309572
0.309873
0.310162
0.310437
0.310699
0.310947
0.311181
0.311401
0.311607
0.311797
0.311972
0.312132
0.312276
0.312404
0.312516
0.312611
0.312688
0.312749
0.312792
0.312816
0.312823
0.312811
0.31278
0.31273
0.312661
0.312572
0.312463
0.312334
0.312184
0.312013
0.311822
0.311608
0.311374
0.311118
0.31084
0.31054
0.310218
0.309873
0.309506
0.309116
0.308703
0.308267
0.307808
0.307327
0.306822
0.306295
0.305746
0.305174
0.304579
0.303962
0.303322
0.302659
0.301973
0.301265
0.300535
0.299783
0.299009
0.298221
0.297405
0.296629
0.295747
0.293126
0.293047
0.292973
0.292889
0.292787
0.292665
0.292524
0.292366
0.292192
0.292002
0.291799
0.291582
0.291354
0.291114
0.290865
0.290606
0.29034
0.290066
0.289786
0.289501
0.289212
0.28892
0.288626
0.28833
0.288035
0.287741
0.287448
0.287159
0.286874
0.286595
0.286322
0.286056
0.285798
0.285551
0.285313
0.285087
0.284874
0.284674
0.284489
0.284319
0.284165
0.284027
0.283908
0.283806
0.283724
0.283661
0.283617
0.283595
0.283593
0.283612
0.283652
0.283714
0.283797
0.283901
0.284027
0.284175
0.284343
0.284532
0.284742
0.284971
0.285221
0.285489
0.285776
0.286081
0.286404
0.286744
0.287099
0.287471
0.287857
0.288257
0.288671
0.289097
0.289535
0.289985
0.290445
0.290915
0.291395
0.291883
0.292379
0.292882
0.293391
0.293907
0.294428
0.294954
0.295483
0.296017
0.296552
0.29709
0.29763
0.29817
0.298711
0.299251
0.299789
0.300326
0.30086
0.301392
0.301919
0.302441
0.302959
0.303471
0.303977
0.304476
0.304968
0.305453
0.305929
0.306398
0.306858
0.307309
0.307751
0.308184
0.308607
0.30902
0.309423
0.309816
0.310197
0.310567
0.310926
0.311274
0.311609
0.311933
0.312243
0.312541
0.312825
0.313097
0.313354
0.313597
0.313826
0.31404
0.314239
0.314422
0.31459
0.314742
0.314877
0.314996
0.315097
0.315182
0.315248
0.315297
0.315327
0.315339
0.315332
0.315306
0.31526
0.315194
0.315108
0.315001
0.314874
0.314726
0.314557
0.314367
0.314154
0.31392
0.313664
0.313386
0.313085
0.312761
0.312415
0.312046
0.311654
0.311238
0.3108
0.310338
0.309853
0.309346
0.308815
0.308262
0.307686
0.307087
0.306465
0.30582
0.305153
0.304463
0.30375
0.303015
0.302258
0.301477
0.30068
0.299855
0.299065
0.298165
0.296986
0.296904
0.296823
0.296732
0.296621
0.296489
0.296338
0.29617
0.295984
0.295783
0.295568
0.29534
0.2951
0.294849
0.294588
0.294317
0.294039
0.293754
0.293463
0.293166
0.292866
0.292563
0.292258
0.291952
0.291645
0.29134
0.291037
0.290737
0.290441
0.29015
0.289865
0.289588
0.289319
0.289059
0.288809
0.28857
0.288344
0.28813
0.287931
0.287746
0.287577
0.287425
0.28729
0.287172
0.287073
0.286993
0.286932
0.286892
0.286871
0.286872
0.286893
0.286935
0.286998
0.287083
0.287189
0.287315
0.287463
0.287631
0.28782
0.288028
0.288256
0.288504
0.28877
0.289054
0.289355
0.289674
0.290009
0.29036
0.290726
0.291106
0.2915
0.291907
0.292327
0.292758
0.293201
0.293654
0.294117
0.294589
0.295069
0.295558
0.296054
0.296556
0.297065
0.297579
0.298099
0.298622
0.29915
0.29968
0.300213
0.300748
0.301284
0.30182
0.302357
0.302892
0.303425
0.303956
0.304484
0.305008
0.305528
0.306043
0.306553
0.307056
0.307553
0.308042
0.308525
0.308999
0.309466
0.309924
0.310373
0.310813
0.311244
0.311665
0.312076
0.312477
0.312867
0.313246
0.313614
0.31397
0.314315
0.314647
0.314967
0.315274
0.315567
0.315847
0.316114
0.316366
0.316603
0.316826
0.317033
0.317225
0.3174
0.31756
0.317703
0.317829
0.317937
0.318028
0.318101
0.318155
0.318191
0.318208
0.318206
0.318184
0.318142
0.318079
0.317996
0.317893
0.317768
0.317622
0.317454
0.317265
0.317053
0.316819
0.316563
0.316284
0.315982
0.315657
0.315309
0.314937
0.314543
0.314125
0.313683
0.313218
0.31273
0.312218
0.311684
0.311126
0.310546
0.309943
0.309316
0.308667
0.307995
0.307301
0.306583
0.305843
0.30508
0.304293
0.303488
0.302653
0.301851
0.300932
0.30146
0.301374
0.301287
0.301187
0.301066
0.300924
0.300762
0.300582
0.300385
0.300171
0.299944
0.299702
0.299449
0.299185
0.29891
0.298626
0.298335
0.298036
0.297732
0.297423
0.297109
0.296793
0.296475
0.296156
0.295836
0.295518
0.295202
0.294889
0.29458
0.294276
0.293978
0.293687
0.293403
0.293129
0.292865
0.292611
0.29237
0.292141
0.291925
0.291724
0.291539
0.291369
0.291215
0.29108
0.290962
0.290862
0.290782
0.290721
0.29068
0.29066
0.290659
0.29068
0.290721
0.290783
0.290865
0.290969
0.291093
0.291237
0.291402
0.291586
0.29179
0.292013
0.292255
0.292515
0.292792
0.293087
0.293398
0.293725
0.294067
0.294424
0.294795
0.295179
0.295577
0.295986
0.296408
0.29684
0.297282
0.297735
0.298197
0.298667
0.299145
0.299632
0.300125
0.300624
0.30113
0.301641
0.302156
0.302676
0.303199
0.303725
0.304254
0.304783
0.305314
0.305844
0.306374
0.306903
0.307429
0.307952
0.308472
0.308987
0.309497
0.310002
0.310501
0.310994
0.31148
0.311958
0.312429
0.312892
0.313347
0.313793
0.31423
0.314657
0.315075
0.315483
0.31588
0.316267
0.316642
0.317007
0.317359
0.317699
0.318027
0.318342
0.318644
0.318932
0.319207
0.319467
0.319712
0.319943
0.320158
0.320357
0.32054
0.320707
0.320857
0.320989
0.321104
0.321202
0.32128
0.32134
0.321381
0.321403
0.321405
0.321387
0.321349
0.32129
0.32121
0.321109
0.320987
0.320842
0.320676
0.320487
0.320276
0.320042
0.319785
0.319506
0.319202
0.318876
0.318526
0.318152
0.317755
0.317334
0.31689
0.316421
0.315929
0.315414
0.314875
0.314313
0.313729
0.313121
0.31249
0.311836
0.31116
0.31046
0.309738
0.308993
0.308224
0.307431
0.30662
0.305776
0.304962
0.304025
0.306577
0.306487
0.306392
0.306281
0.30615
0.305996
0.305822
0.305629
0.305418
0.305191
0.304949
0.304693
0.304425
0.304146
0.303856
0.303557
0.30325
0.302936
0.302616
0.302292
0.301963
0.301632
0.301298
0.300964
0.30063
0.300296
0.299965
0.299637
0.299312
0.298993
0.298679
0.298372
0.298073
0.297782
0.297501
0.297231
0.296972
0.296725
0.296492
0.296272
0.296068
0.295878
0.295705
0.295549
0.29541
0.295289
0.295187
0.295104
0.29504
0.294996
0.294972
0.294968
0.294984
0.29502
0.295078
0.295155
0.295253
0.295371
0.295508
0.295666
0.295842
0.296038
0.296252
0.296484
0.296734
0.297001
0.297284
0.297584
0.297899
0.298229
0.298573
0.298931
0.299302
0.299686
0.300082
0.30049
0.300908
0.301337
0.301776
0.302224
0.302681
0.303146
0.30362
0.3041
0.304588
0.305082
0.305581
0.306086
0.306596
0.307109
0.307626
0.308145
0.308666
0.309188
0.309711
0.310233
0.310753
0.311272
0.311788
0.3123
0.312808
0.313312
0.31381
0.314302
0.314789
0.315268
0.315741
0.316206
0.316663
0.317113
0.317553
0.317985
0.318407
0.318819
0.319222
0.319614
0.319995
0.320365
0.320724
0.32107
0.321405
0.321726
0.322035
0.32233
0.322611
0.322878
0.32313
0.323367
0.323589
0.323795
0.323984
0.324157
0.324313
0.324451
0.324572
0.324675
0.324759
0.324824
0.32487
0.324896
0.324902
0.324888
0.324853
0.324797
0.32472
0.324621
0.3245
0.324357
0.324192
0.324004
0.323793
0.323559
0.323302
0.323021
0.322716
0.322388
0.322036
0.32166
0.32126
0.320837
0.320389
0.319917
0.319422
0.318902
0.318359
0.317793
0.317204
0.316592
0.315956
0.315298
0.314617
0.313913
0.313187
0.312436
0.311663
0.310865
0.310047
0.309196
0.308373
0.30742
0.312367
0.312272
0.312168
0.312046
0.311902
0.311735
0.311547
0.31134
0.311114
0.310871
0.310612
0.31034
0.310054
0.309758
0.30945
0.309134
0.308809
0.308477
0.308139
0.307797
0.307451
0.307101
0.30675
0.306398
0.306046
0.305696
0.305347
0.305001
0.304659
0.304321
0.30399
0.303665
0.303347
0.303038
0.302739
0.302449
0.302171
0.301905
0.301651
0.301411
0.301185
0.300974
0.300779
0.3006
0.300438
0.300294
0.300168
0.30006
0.29997
0.2999
0.29985
0.299819
0.299808
0.299817
0.299846
0.299894
0.299963
0.300051
0.300159
0.300286
0.300432
0.300597
0.30078
0.300981
0.301199
0.301435
0.301687
0.301956
0.302239
0.302538
0.302852
0.303179
0.30352
0.303874
0.30424
0.304618
0.305008
0.305409
0.30582
0.306241
0.306672
0.307112
0.307561
0.308018
0.308483
0.308955
0.309434
0.309919
0.31041
0.310906
0.311406
0.31191
0.312417
0.312926
0.313437
0.313948
0.314458
0.314968
0.315476
0.315981
0.316482
0.31698
0.317473
0.317962
0.318444
0.318921
0.319392
0.319856
0.320312
0.320761
0.321202
0.321634
0.322058
0.322472
0.322877
0.323271
0.323655
0.324029
0.324391
0.324741
0.325079
0.325405
0.325718
0.326018
0.326304
0.326575
0.326832
0.327074
0.327301
0.327512
0.327706
0.327884
0.328045
0.328188
0.328313
0.32842
0.328508
0.328577
0.328626
0.328656
0.328665
0.328654
0.328622
0.328568
0.328493
0.328396
0.328277
0.328135
0.32797
0.327783
0.327572
0.327337
0.327079
0.326797
0.326492
0.326162
0.325808
0.32543
0.325027
0.324601
0.32415
0.323674
0.323175
0.322652
0.322106
0.321536
0.320942
0.320325
0.319686
0.319024
0.318338
0.31763
0.316899
0.316145
0.315367
0.314565
0.313743
0.312886
0.312054
0.311089
0.318865
0.318764
0.318649
0.318514
0.318356
0.318174
0.317969
0.317745
0.317501
0.317239
0.316962
0.31667
0.316364
0.316047
0.315719
0.315382
0.315036
0.314684
0.314325
0.313962
0.313595
0.313225
0.312853
0.31248
0.312108
0.311737
0.311368
0.311002
0.310639
0.310282
0.30993
0.309584
0.309247
0.308917
0.308596
0.308286
0.307986
0.307698
0.307422
0.307159
0.30691
0.306676
0.306456
0.306253
0.306066
0.305896
0.305743
0.305608
0.305491
0.305393
0.305314
0.305253
0.305212
0.305191
0.305188
0.305205
0.305242
0.305297
0.305372
0.305465
0.305577
0.305708
0.305857
0.306023
0.306206
0.306407
0.306623
0.306856
0.307104
0.307368
0.307646
0.307938
0.308244
0.308563
0.308895
0.309239
0.309595
0.309963
0.310341
0.310731
0.31113
0.31154
0.311958
0.312386
0.312823
0.313268
0.313721
0.314181
0.314648
0.315121
0.315599
0.316082
0.31657
0.31706
0.317553
0.318047
0.318543
0.319038
0.319532
0.320024
0.320514
0.321001
0.321485
0.321964
0.322439
0.322908
0.323372
0.32383
0.324281
0.324726
0.325163
0.325592
0.326013
0.326425
0.326828
0.327221
0.327605
0.327978
0.32834
0.328691
0.32903
0.329357
0.329672
0.329973
0.330261
0.330535
0.330794
0.331039
0.331268
0.331482
0.331679
0.33186
0.332023
0.332169
0.332297
0.332407
0.332498
0.33257
0.332621
0.332653
0.332665
0.332656
0.332625
0.332573
0.332499
0.332403
0.332285
0.332143
0.331979
0.331791
0.33158
0.331345
0.331086
0.330803
0.330496
0.330164
0.329808
0.329428
0.329023
0.328593
0.32814
0.327661
0.327159
0.326632
0.326082
0.325508
0.324911
0.32429
0.323647
0.322981
0.322292
0.32158
0.320846
0.320088
0.319307
0.318501
0.317675
0.316814
0.315977
0.315002
0.326109
0.326
0.325871
0.325721
0.325546
0.325346
0.325122
0.324877
0.324612
0.324328
0.324028
0.323712
0.323383
0.323041
0.322689
0.322327
0.321957
0.321579
0.321196
0.320808
0.320417
0.320023
0.319627
0.319231
0.318835
0.318441
0.318049
0.317659
0.317274
0.316894
0.316519
0.316151
0.31579
0.315437
0.315093
0.314759
0.314435
0.314123
0.313823
0.313535
0.313261
0.313001
0.312755
0.312525
0.312311
0.312112
0.311931
0.311767
0.31162
0.311491
0.311381
0.311288
0.311214
0.311159
0.311123
0.311105
0.311106
0.311126
0.311164
0.31122
0.311295
0.311387
0.311497
0.311624
0.311769
0.311929
0.312106
0.312299
0.312507
0.312731
0.312969
0.313221
0.313487
0.313766
0.314058
0.314363
0.31468
0.315008
0.315349
0.3157
0.316063
0.316436
0.316819
0.317212
0.317614
0.318026
0.318447
0.318875
0.319312
0.319756
0.320206
0.320662
0.321124
0.321589
0.322058
0.32253
0.323003
0.323478
0.323952
0.324426
0.324898
0.325368
0.325836
0.326301
0.326762
0.327218
0.32767
0.328117
0.328558
0.328993
0.329421
0.329842
0.330255
0.330661
0.331058
0.331446
0.331825
0.332194
0.332552
0.3329
0.333236
0.333561
0.333873
0.334173
0.33446
0.334733
0.334992
0.335236
0.335465
0.335679
0.335876
0.336057
0.336222
0.336368
0.336497
0.336608
0.336699
0.336772
0.336825
0.336857
0.33687
0.336861
0.336831
0.33678
0.336706
0.33661
0.336492
0.33635
0.336186
0.335997
0.335785
0.33555
0.33529
0.335005
0.334696
0.334363
0.334005
0.333622
0.333215
0.332783
0.332326
0.331845
0.331339
0.33081
0.330256
0.329679
0.329078
0.328455
0.327808
0.327138
0.326446
0.325732
0.324994
0.324234
0.323451
0.322643
0.321815
0.320951
0.320111
0.319129
0.334139
0.334019
0.333876
0.333707
0.333511
0.333289
0.333042
0.332771
0.33248
0.332169
0.331841
0.331497
0.331138
0.330767
0.330385
0.329993
0.329594
0.329187
0.328775
0.328358
0.327938
0.327516
0.327093
0.326669
0.326246
0.325825
0.325406
0.324991
0.32458
0.324174
0.323773
0.323379
0.322993
0.322615
0.322245
0.321885
0.321536
0.321197
0.32087
0.320555
0.320254
0.319966
0.319692
0.319432
0.319188
0.31896
0.318747
0.318551
0.318372
0.31821
0.318065
0.317938
0.317828
0.317736
0.317663
0.317607
0.317569
0.317549
0.317547
0.317562
0.317595
0.317645
0.317712
0.317796
0.317897
0.318013
0.318146
0.318294
0.318457
0.318635
0.318827
0.319034
0.319254
0.319488
0.319735
0.319994
0.320267
0.320551
0.320847
0.321155
0.321474
0.321804
0.322145
0.322496
0.322858
0.32323
0.323612
0.324002
0.324402
0.324809
0.325225
0.325647
0.326075
0.326508
0.326947
0.327389
0.327834
0.32828
0.328728
0.329176
0.329624
0.330072
0.330517
0.330961
0.331401
0.331839
0.332273
0.332703
0.333127
0.333547
0.333961
0.334368
0.334769
0.335163
0.335549
0.335926
0.336295
0.336655
0.337005
0.337345
0.337675
0.337993
0.338299
0.338594
0.338875
0.339144
0.339398
0.339639
0.339865
0.340076
0.340271
0.340449
0.340611
0.340756
0.340883
0.340992
0.341083
0.341154
0.341206
0.341238
0.341249
0.34124
0.341209
0.341157
0.341082
0.340986
0.340866
0.340724
0.340558
0.340369
0.340156
0.339918
0.339657
0.339371
0.33906
0.338725
0.338365
0.33798
0.337571
0.337136
0.336677
0.336193
0.335685
0.335153
0.334596
0.334016
0.333413
0.332786
0.332137
0.331464
0.33077
0.330053
0.329314
0.328552
0.327767
0.326958
0.326129
0.325265
0.324423
0.323439
0.343
0.342868
0.342706
0.342515
0.342293
0.342043
0.341766
0.341464
0.341139
0.340794
0.340431
0.340051
0.339656
0.339249
0.338831
0.338403
0.337968
0.337526
0.337079
0.336629
0.336175
0.33572
0.335265
0.33481
0.334356
0.333904
0.333456
0.333011
0.332571
0.332136
0.331707
0.331284
0.33087
0.330463
0.330066
0.329677
0.329299
0.328932
0.328576
0.328232
0.3279
0.327582
0.327277
0.326986
0.32671
0.326448
0.326202
0.325971
0.325756
0.325558
0.325376
0.32521
0.325062
0.32493
0.324815
0.324718
0.324637
0.324574
0.324527
0.324497
0.324484
0.324487
0.324507
0.324543
0.324595
0.324662
0.324745
0.324843
0.324955
0.325082
0.325224
0.325379
0.325548
0.32573
0.325926
0.326134
0.326355
0.326588
0.326834
0.327091
0.32736
0.327641
0.327933
0.328236
0.328551
0.328876
0.329211
0.329557
0.329912
0.330276
0.330649
0.331029
0.331416
0.331811
0.332212
0.332616
0.333025
0.333436
0.33385
0.334265
0.334682
0.335099
0.335515
0.33593
0.336344
0.336756
0.337166
0.337572
0.337974
0.338372
0.338765
0.339154
0.339536
0.339912
0.340281
0.340643
0.340997
0.341343
0.341679
0.342007
0.342324
0.342631
0.342927
0.343212
0.343484
0.343744
0.34399
0.344224
0.344442
0.344647
0.344836
0.345009
0.345166
0.345306
0.345428
0.345533
0.34562
0.345688
0.345736
0.345765
0.345774
0.345762
0.345729
0.345674
0.345598
0.345499
0.345377
0.345233
0.345065
0.344874
0.344659
0.34442
0.344157
0.343869
0.343556
0.343219
0.342857
0.34247
0.342058
0.341621
0.34116
0.340674
0.340163
0.339629
0.33907
0.338488
0.337882
0.337253
0.336602
0.335928
0.335232
0.334513
0.333773
0.33301
0.332225
0.331417
0.330589
0.329726
0.328884
0.3279
0.352745
0.352596
0.352411
0.352191
0.351937
0.35165
0.351334
0.350991
0.350624
0.350234
0.349826
0.349401
0.348961
0.348509
0.348046
0.347575
0.347096
0.346612
0.346125
0.345634
0.345141
0.344648
0.344156
0.343665
0.343175
0.342689
0.342207
0.341729
0.341256
0.340789
0.340328
0.339874
0.339429
0.338991
0.338562
0.338143
0.337734