/*--------------------------------*- C++ -*----------------------------------*\
| =========                 |                                                 |
| \\      /  F ield         | OpenFOAM: The Open Source CFD Toolbox           |
|  \\    /   O peration     | Version:  4.1                                   |
|   \\  /    A nd           | Web:      www.OpenFOAM.org                      |
|    \\/     M anipulation  |                                                 |
\*---------------------------------------------------------------------------*/
FoamFile
{
    version     2.0;
    format      ascii;
    class       volScalarField;
    location    "0.095";
    object      T;
}
// * * * * * * * * * * * * * * * * * * * * * * * * * * * * * * * * * * * * * //

dimensions      [0 0 0 1 0 0 0];

internalField   nonuniform List<scalar> 
12225
(
1.11552
1.23317
1.29917
1.34126
1.36974
1.38851
1.40119
1.41004
1.41642
1.42116
1.42479
1.42763
1.4299
1.43177
1.4333
1.43469
1.43581
1.43518
0.860947
0.707839
0.632408
0.594821
0.576427
0.569644
0.569414
0.572758
0.577971
0.584077
0.590513
0.596954
0.603214
0.609181
0.61481
0.619994
0.624958
0.628865
1.03458
1.08006
1.10414
1.11423
1.11556
1.11189
1.10559
1.09802
1.08996
1.08185
1.07398
1.06647
1.05942
1.05284
1.04677
1.04114
1.0362
1.0315
1.00165
0.998855
0.992981
0.988432
0.986044
0.98539
0.98593
0.9872
0.988859
0.990683
0.992533
0.994323
0.995998
0.997539
0.998939
1.00018
1.0013
1.00234
1.00023
1.00039
1.00026
1.00043
1.00067
1.0008
1.00084
1.0008
1.00072
1.00062
1.00051
1.00042
1.00033
1.00027
1.00023
1.00019
1.00021
1.00021
0.999584
0.999244
0.998899
0.998714
0.99862
0.998535
0.998453
0.99839
0.998342
0.998302
0.998271
0.998244
0.99822
0.998204
0.998189
0.998174
0.998175
0.998153
0.999929
1.00011
1.00016
1.00019
1.00023
1.00025
1.00026
1.00026
1.00026
1.00026
1.00026
1.00025
1.00024
1.00023
1.00022
1.00021
1.00021
1.00019
0.999971
1.00007
1.00006
1.00002
1.00001
1.00001
1.00001
1
1
1
1
1.00001
1.00002
1.00002
1.00002
1.00003
1.00003
1.00003
0.999979
1.00004
1.00003
1.00002
1.00002
1.00002
1.00002
1.00002
1.00002
1.00003
1.00003
1.00003
1.00003
1.00003
1.00003
1.00003
1.00003
1.00003
0.999978
1.00002
1.00001
0.999998
0.999998
1
0.999999
0.999997
0.999996
0.999997
0.999995
0.999996
1
0.999999
0.999995
1
0.999995
0.999997
0.999985
1.00001
1.00001
1
1
0.999997
0.999997
0.999997
1
1
1
0.999998
0.999997
1
1
1
0.999997
1
0.999988
1.00001
1.00001
0.999999
0.999997
0.999999
0.999998
0.999999
0.999998
0.999996
0.999996
0.999997
0.999999
0.999999
1
1
0.999996
1
0.999989
1.00001
1.00001
1
0.999999
0.999999
1
1
0.999999
0.999998
1
0.999998
0.999999
1
0.999999
1
0.999993
0.999997
0.999991
1
1.00001
1.00001
1
1
0.999997
0.999998
0.999999
0.999998
0.999996
0.999998
0.999997
0.999997
0.999997
0.999997
0.999994
1
0.999993
1
1.00001
1.00001
1
1
0.999998
0.999999
0.999999
0.999999
1
0.999999
0.999999
1
0.999995
0.999998
0.999992
0.999998
0.999994
1
1.00001
1
1
1
1
0.999999
0.999999
0.999997
0.999997
1
1
1
0.999999
0.999998
0.999993
0.999999
0.999993
1
1
1
1
1
1
1
0.999999
1
1
0.999999
0.999998
0.999999
1
1
0.999997
0.999999
0.999995
1
1
1.00001
1.00001
1.00001
1
1
1
1
1
1
1.00001
1.00001
1
1
0.999997
1
0.999995
1
1
1
1
1
1.00001
1
0.999999
1
1
1
0.999997
0.999995
0.999999
0.999997
0.999991
0.999995
0.999992
1
1
1
1
1
1.00001
1.00001
1.00001
1
1.00001
1.00001
1.00001
1.00001
1.00001
1.00001
1.00001
1.00002
0.999991
0.999999
1.00001
1
0.999996
0.999991
0.999991
0.999988
0.999986
0.999985
0.999981
0.999979
0.999975
0.999972
0.999972
0.999972
0.999964
0.999966
0.999988
1
1.00001
1.00001
1.00002
1.00002
1.00003
1.00004
1.00004
1.00005
1.00006
1.00006
1.00007
1.00007
1.00008
1.00008
1.00008
1.00009
0.999982
1
1
0.999974
0.999943
0.999921
0.9999
0.999878
0.99986
0.999842
0.999828
0.999815
0.999802
0.999795
0.999786
0.999779
0.99977
0.999767
0.999965
1.00007
1.00018
1.00024
1.0003
1.00037
1.00043
1.00049
1.00054
1.00058
1.00062
1.00065
1.00067
1.00069
1.00071
1.00072
1.00073
1.00074
0.999753
0.999568
0.999366
0.999131
0.998913
0.998704
0.998509
0.998342
0.998201
0.998088
0.998002
0.997936
0.997889
0.997856
0.997838
0.997829
0.997822
0.997814
0.999992
1.00043
1.00095
1.00167
1.00247
1.00316
1.00368
1.00405
1.00429
1.00442
1.00447
1.00446
1.0044
1.00432
1.00421
1.00409
1.00396
1.00386
0.999945
0.996247
0.990161
0.98452
0.980273
0.977358
0.975527
0.97452
0.974115
0.974128
0.974432
0.974931
0.975556
0.976259
0.977006
0.977763
0.978549
0.979195
1.0214
1.05634
1.0798
1.09471
1.10362
1.10848
1.11069
1.11118
1.11056
1.10922
1.10743
1.10537
1.10317
1.1009
1.09862
1.09638
1.09417
1.09224
0.922802
0.82784
0.774466
0.743959
0.725618
0.714657
0.708441
0.705217
0.70388
0.70374
0.704359
0.705454
0.70684
0.708395
0.710039
0.711701
0.713398
0.714943
1.06291
1.12901
1.16726
1.19166
1.20826
1.21975
1.22781
1.23361
1.2379
1.24113
1.24365
1.24564
1.24725
1.24858
1.24971
1.25063
1.25155
1.25214
6.52642e-18
4.4924e-18
-2.87993e-19
-1.13146e-18
-3.77035e-19
1.86309e-18
-1.78444e-17
-1.49214e-16
5.67535e-15
-2.93928e-15
-2.87539e-13
-9.76432e-15
6.1591e-12
1.01541e-11
-5.6936e-11
-2.31027e-10
-8.35962e-11
1.45105e-09
4.48935e-09
4.69612e-09
-8.41166e-09
-4.55099e-08
-1.02144e-07
-1.41075e-07
-8.55023e-08
1.65729e-07
6.99563e-07
1.53672e-06
2.58306e-06
3.60097e-06
4.21156e-06
3.92998e-06
2.22825e-06
-1.3853e-06
-7.2827e-06
-1.56414e-05
-2.63871e-05
-3.91603e-05
-5.33087e-05
-6.79051e-05
-8.17866e-05
-9.36114e-05
-0.000101927
-0.000105243
-0.000102109
-9.11807e-05
-7.12892e-05
-4.14926e-05
-1.11537e-06
5.02163e-05
0.000112553
0.000185615
0.000268797
0.000361186
0.000461581
0.000568526
0.000680347
0.000795187
0.00091106
0.00102589
0.00113754
0.00124388
0.00134282
0.00143232
0.00151048
0.00157552
0.00162582
0.00165996
0.00167671
0.0016751
0.00165434
0.00161391
0.00155353
0.00147314
0.00137294
0.00125336
0.00111503
0.000958818
0.000785782
0.000597168
0.000394399
0.000179049
-4.71653e-05
-0.000282401
-0.000524711
-0.000772054
-0.00102232
-0.00127332
-0.00152285
-0.00176866
-0.00200848
-0.00224004
-0.00246106
-0.00266928
-0.00286245
-0.00303836
-0.00319478
-0.00332954
-0.00344047
-0.00352548
-0.00358271
-0.00361133
-0.00361425
-0.00359074
-0.00354113
-0.00346579
-0.00336534
-0.00324063
-0.0030927
-0.00292279
-0.00273233
-0.00252293
-0.00229638
-0.00205464
-0.00179981
-0.00153415
-0.00126006
-0.000980035
-0.000696708
-0.000412782
-0.000131041
0.000145663
0.000414433
0.000672333
0.000916405
0.00114368
0.00135121
0.00153605
0.00169534
0.00182631
0.0019263
0.00199275
0.00202324
0.00201545
0.00196722
0.00187655
0.00174172
0.00156125
0.00133393
0.00105871
0.000734742
0.000361456
-6.12375e-05
-0.00053306
-0.00105364
-0.00162258
-0.00223877
-0.00290029
-0.00360545
-0.00435306
-0.00514064
-0.00596457
-0.00682429
-0.00771678
-0.00863534
-0.00958088
-0.0105489
-0.0115334
-0.0125326
-0.0135395
-0.0145871
-0.0156974
-0.0167925
-0.0177508
-0.0188012
-0.0199464
-0.0209988
-0.0219923
-0.0229256
-0.0237916
-0.0245873
-0.0253133
-0.0259726
-0.0265633
-0.0270976
-0.0275277
-0.0279862
-0.0278754
-0.0288867
-0.0243823
8.44411e-17
2.13612e-17
6.19962e-18
-4.98769e-18
-6.31028e-17
-1.94714e-17
3.65657e-15
-3.36697e-17
-1.11372e-13
-1.45996e-13
1.7197e-12
5.65312e-12
-7.49732e-12
-7.61757e-11
-1.35691e-10
2.09896e-10
1.51673e-09
3.15869e-09
1.17616e-09
-1.18837e-08
-4.12446e-08
-7.75919e-08
-8.41461e-08
5.76552e-09
2.70895e-07
7.62651e-07
1.45367e-06
2.19182e-06
2.67827e-06
2.48274e-06
1.09977e-06
-1.96003e-06
-7.05737e-06
-1.43079e-05
-2.34801e-05
-3.39225e-05
-4.45309e-05
-5.37604e-05
-5.96829e-05
-6.00839e-05
-5.25929e-05
-3.48342e-05
-4.58994e-06
4.00386e-05
0.000100479
0.000177558
0.000271392
0.000381321
0.000505869
0.000642739
0.000788837
0.000940323
0.0010927
0.0012409
0.00137946
0.00150261
0.00160449
0.00167925
0.00172122
0.00172508
0.00168601
0.00159981
0.001463
0.00127297
0.001028
0.000727383
0.000371447
-3.84404e-05
-0.000499854
-0.00100933
-0.00156238
-0.00215359
-0.00277663
-0.00342439
-0.00408899
-0.00476198
-0.00543432
-0.00609663
-0.00673917
-0.00735203
-0.0079252
-0.00844873
-0.0089128
-0.00930775
-0.00962432
-0.00985364
-0.00998731
-0.0100175
-0.00993699
-0.00973924
-0.00941845
-0.00896952
-0.00838814
-0.00767079
-0.00681477
-0.00581813
-0.00467974
-0.00339917
-0.00197677
-0.000413626
0.00128848
0.00312685
0.00510187
0.00721171
0.00945493
0.0118299
0.0143349
0.0169683
0.0197282
0.0226127
0.0256198
0.028747
0.031992
0.0353522
0.0388244
0.0424055
0.0460918
0.0498793
0.0537634
0.057739
0.0618011
0.0659434
0.0701596
0.0744426
0.0787845
0.0831774
0.0876123
0.0920798
0.09657
0.101072
0.105575
0.110068
0.114539
0.118975
0.123363
0.127691
0.131946
0.136113
0.140181
0.144135
0.147961
0.151648
0.15518
0.158548
0.161738
0.164737
0.167535
0.170123
0.172493
0.174633
0.176537
0.178207
0.17963
0.180798
0.18173
0.182397
0.182808
0.182979
0.182837
0.182535
0.181925
0.180817
0.179435
0.177894
0.175771
0.17268
0.16892
0.164807
0.160481
0.155993
0.151348
0.146524
0.14148
0.136116
0.130318
0.123674
0.116075
0.105121
0.0936785
0.0591837
1.62541e-16
1.51695e-18
6.56298e-17
-3.79409e-17
4.53168e-16
4.60301e-15
-6.30689e-15
-1.14537e-13
-9.77703e-14
1.5618e-12
4.89144e-12
-5.39198e-12
-6.14092e-11
-1.19912e-10
1.26901e-10
1.1643e-09
2.63318e-09
1.48985e-09
-8.50035e-09
-3.23926e-08
-6.33308e-08
-6.98318e-08
8.58938e-09
2.46308e-07
6.92512e-07
1.31526e-06
1.94664e-06
2.25212e-06
1.744e-06
-1.50375e-07
-3.96829e-06
-1.00541e-05
-1.83889e-05
-2.84345e-05
-3.90212e-05
-4.82985e-05
-5.37658e-05
-5.23848e-05
-4.07714e-05
-1.54532e-05
2.68268e-05
8.8782e-05
0.000172254
0.000277912
0.000404989
0.000551096
0.000712096
0.000882082
0.00105342
0.00121687
0.00136183
0.00147658
0.00154864
0.00156513
0.00151321
0.00138045
0.00115531
0.000827491
0.000388312
-0.000168951
-0.000848825
-0.00165341
-0.00258225
-0.00363228
-0.0047978
-0.00607056
-0.00743988
-0.00889292
-0.0104148
-0.0119891
-0.0135979
-0.0152223
-0.0168428
-0.0184397
-0.0199933
-0.0214845
-0.0228949
-0.024207
-0.0254049
-0.0264742
-0.0274021
-0.0281779
-0.0287926
-0.0292395
-0.0295136
-0.0296119
-0.0295333
-0.0292784
-0.0288494
-0.0282498
-0.0274842
-0.0265581
-0.0254778
-0.0242501
-0.0228817
-0.0213798
-0.0197509
-0.0180012
-0.0161361
-0.0141589
-0.0120665
-0.00983215
-0.00745117
-0.00491992
-0.00223325
0.000614874
0.00363146
0.00682436
0.0102022
0.0137743
0.0175507
0.0215417
0.0257583
0.0302115
0.0349126
0.0398727
0.0451029
0.0506138
0.0564154
0.0625173
0.068928
0.0756548
0.0827041
0.0900805
0.0977876
0.105827
0.114199
0.122901
0.131929
0.141277
0.150938
0.160899
0.17115
0.181676
0.192459
0.203481
0.214721
0.226156
0.237763
0.249514
0.261383
0.27334
0.285355
0.297398
0.309437
0.32144
0.333373
0.345204
0.356901
0.368432
0.379762
0.390867
0.401709
0.412264
0.422535
0.432432
0.441946
0.451152
0.459793
0.468122
0.476048
0.48328
0.489916
0.495962
0.501428
0.506201
0.510205
0.513495
0.516106
0.518061
0.519362
0.519985
0.51988
0.518903
0.516933
0.513282
0.508161
0.497083
0.487155
0.439859
-2.48227e-16
-2.94387e-16
-4.19729e-16
-1.69102e-16
3.33977e-15
2.16431e-15
-7.34742e-14
-1.87322e-13
6.83258e-13
3.98767e-12
2.38647e-12
-3.21735e-11
-1.06832e-10
-5.29501e-11
5.73289e-10
1.98485e-09
2.66435e-09
-2.10573e-09
-1.87155e-08
-4.7692e-08
-7.0988e-08
-4.14289e-08
1.13697e-07
4.64698e-07
1.02623e-06
1.69103e-06
2.17423e-06
1.99623e-06
5.27054e-07
-2.89732e-06
-8.79362e-06
-1.73083e-05
-2.79891e-05
-3.95937e-05
-4.99762e-05
-5.60848e-05
-5.40905e-05
-3.96517e-05
-8.3037e-06
4.40543e-05
0.000120609
0.000223067
0.000351114
0.000501956
0.000669961
0.000846461
0.00101971
0.00117501
0.00129503
0.00136028
0.00134969
0.00124135
0.00101332
0.000644457
0.000115268
-0.000591283
-0.00148903
-0.00258799
-0.00389383
-0.00540751
-0.00712514
-0.00903794
-0.0111324
-0.0133906
-0.0157906
-0.0183073
-0.0209127
-0.0235771
-0.0262696
-0.0289591
-0.0316152
-0.0342088
-0.0367128
-0.039103
-0.0413581
-0.0434607
-0.0453971
-0.0471575
-0.0487363
-0.0501317
-0.0513455
-0.0523828
-0.0532517
-0.0539627
-0.0545281
-0.0549614
-0.0552771
-0.0554896
-0.0556132
-0.0556612
-0.0556454
-0.0555761
-0.0554616
-0.0553079
-0.0551185
-0.0548945
-0.0546347
-0.054335
-0.0539896
-0.0535917
-0.053137
-0.0526421
-0.0521007
-0.0515043
-0.0508428
-0.0501043
-0.049275
-0.0483393
-0.0472797
-0.0460769
-0.0447099
-0.0431556
-0.0413892
-0.0393846
-0.0371136
-0.0345464
-0.0316526
-0.0284001
-0.0247562
-0.020688
-0.016162
-0.0111454
-0.00560598
0.000487489
0.00716462
0.014453
0.0223779
0.0309615
0.040223
0.050177
0.0608342
0.0722011
0.0842788
0.0970643
0.110549
0.124721
0.139561
0.155045
0.171145
0.187826
0.205053
0.222784
0.240975
0.259575
0.278534
0.297802
0.317325
0.337044
0.356903
0.376846
0.396822
0.416784
0.436657
0.456368
0.475972
0.49534
0.51438
0.533267
0.551773
0.569864
0.587506
0.604677
0.621422
0.637648
0.653324
0.668411
0.68286
0.696677
0.709858
0.722401
0.734297
0.745528
0.756069
0.765841
0.774841
0.782619
0.789696
0.792987
0.798226
0.784245
-3.54835e-15
7.83542e-16
7.44165e-16
2.00536e-15
7.34122e-15
-1.43106e-14
-1.50446e-13
-8.54104e-14
1.78723e-12
5.31904e-12
-4.10875e-12
-5.73399e-11
-1.24687e-10
5.13407e-11
9.36009e-10
2.436e-09
2.28116e-09
-4.97197e-09
-2.52191e-08
-5.59259e-08
-7.29771e-08
-2.15475e-08
1.76566e-07
5.89045e-07
1.21228e-06
1.89766e-06
2.29148e-06
1.82121e-06
-2.44238e-07
-4.64597e-06
-1.19056e-05
-2.20438e-05
-3.42943e-05
-4.68715e-05
-5.68506e-05
-6.02082e-05
-5.20559e-05
-2.70727e-05
1.98801e-05
9.30045e-05
0.000194731
0.000324881
0.000479898
0.00065223
0.00082993
0.000996519
0.00113114
0.00120904
0.00120228
0.00108081
0.000813652
0.000370248
-0.000278066
-0.00115666
-0.00228626
-0.0036818
-0.00535142
-0.00729582
-0.0095079
-0.0119727
-0.0146678
-0.0175638
-0.0206251
-0.0238116
-0.0270792
-0.0303822
-0.0336739
-0.0369088
-0.0400435
-0.0430384
-0.0458586
-0.0484745
-0.050863
-0.0530074
-0.054898
-0.0565311
-0.0579092
-0.0590407
-0.0599388
-0.0606205
-0.061106
-0.0614177
-0.0615795
-0.0616155
-0.0615496
-0.0614048
-0.0612029
-0.0609638
-0.0607049
-0.0604419
-0.0601883
-0.0599552
-0.059752
-0.0595862
-0.0594635
-0.0593884
-0.059364
-0.0593928
-0.059477
-0.0596225
-0.0598534
-0.0601843
-0.060609
-0.0611236
-0.0617221
-0.0623974
-0.0631404
-0.0639398
-0.0647822
-0.0656518
-0.0665291
-0.067392
-0.068215
-0.0689681
-0.0696179
-0.0701268
-0.0704519
-0.0705469
-0.0703606
-0.0698381
-0.0689207
-0.067546
-0.0656492
-0.063164
-0.0600222
-0.0561562
-0.051499
-0.0459858
-0.0395551
-0.0321503
-0.0237205
-0.0142224
-0.00362044
0.00811177
0.0209911
0.0350242
0.0502062
0.0665204
0.0839387
0.102422
0.121922
0.142378
0.163723
0.185875
0.20875
0.232258
0.256306
0.280798
0.305636
0.330705
0.355893
0.381159
0.4064
0.431412
0.456273
0.480902
0.505102
0.528859
0.552103
0.574817
0.596957
0.618463
0.639327
0.6595
0.678967
0.697718
0.715737
0.733034
0.74962
0.765511
0.780718
0.79525
0.809117
0.822298
0.834857
0.846539
0.857916
0.867137
0.878185
0.881754
2.3537e-14
-3.51753e-16
-2.47584e-15
-1.28452e-15
4.25901e-15
-3.63859e-14
-1.98242e-13
5.53549e-14
2.51497e-12
5.60883e-12
-8.78004e-12
-6.9571e-11
-1.27255e-10
1.03095e-10
1.06792e-09
2.56268e-09
2.17567e-09
-5.54815e-09
-2.6332e-08
-5.75046e-08
-7.5096e-08
-2.43605e-08
1.74158e-07
5.92082e-07
1.23182e-06
1.94814e-06
2.37895e-06
1.92076e-06
-2.16992e-07
-4.85741e-06
-1.26023e-05
-2.35069e-05
-3.67377e-05
-5.02831e-05
-6.07962e-05
-6.36376e-05
-5.31686e-05
-2.3311e-05
3.16435e-05
0.00011603
0.000231695
0.000376888
0.000545257
0.000725096
0.000898909
0.0010434
0.00112991
0.00112531
0.000993359
0.000696363
0.000197148
-0.000538844
-0.00154143
-0.0028337
-0.0044303
-0.00633604
-0.008545
-0.0110402
-0.0137935
-0.016767
-0.0199135
-0.0231786
-0.0265027
-0.029823
-0.0330764
-0.0362015
-0.0391409
-0.041843
-0.0442638
-0.0463681
-0.0481308
-0.0495365
-0.0505794
-0.0512631
-0.0516002
-0.0516101
-0.0513182
-0.0507551
-0.0499542
-0.0489504
-0.0477797
-0.0464773
-0.0450768
-0.0436102
-0.0421066
-0.0405926
-0.0390921
-0.0376264
-0.0362146
-0.0348733
-0.0336179
-0.0324623
-0.0314191
-0.0305001
-0.0297163
-0.0290783
-0.0285957
-0.0282776
-0.0281317
-0.0281632
-0.028367
-0.0287284
-0.0292537
-0.029945
-0.0308057
-0.0318392
-0.0330487
-0.0344373
-0.0360065
-0.0377568
-0.0396861
-0.0417894
-0.0440578
-0.0464779
-0.0490307
-0.0516905
-0.0544242
-0.0571905
-0.0599387
-0.0626086
-0.0651301
-0.0674229
-0.0693969
-0.0709527
-0.0719826
-0.0723722
-0.0720009
-0.0707454
-0.0684812
-0.0650848
-0.0604375
-0.0544274
-0.046954
-0.0379294
-0.0272811
-0.0149543
-0.000913745
0.0148535
0.0323376
0.0515059
0.0723046
0.0946586
0.118472
0.143628
0.169996
0.197426
0.225759
0.254833
0.284501
0.314585
0.344856
0.375224
0.405557
0.435626
0.465314
0.49449
0.52304
0.550883
0.57792
0.604075
0.629284
0.653493
0.676675
0.698797
0.719847
0.739822
0.758724
0.776574
0.793396
0.809226
0.824089
0.838014
0.851039
0.86316
0.874458
0.884728
0.894504
0.902204
0.911418
0.914468
-8.93017e-14
-8.7728e-15
4.20964e-15
1.32915e-14
1.97041e-14
-2.7142e-14
-1.92114e-13
9.98359e-14
2.58515e-12
5.53147e-12
-8.44857e-12
-6.65057e-11
-1.24822e-10
7.37748e-11
9.50746e-10
2.40734e-09
2.43427e-09
-3.85252e-09
-2.22798e-08
-5.24372e-08
-7.57973e-08
-4.49324e-08
1.1542e-07
4.8374e-07
1.08759e-06
1.82621e-06
2.39152e-06
2.22178e-06
5.26891e-07
-3.58346e-06
-1.08573e-05
-2.15609e-05
-3.50916e-05
-4.96189e-05
-6.18457e-05
-6.69813e-05
-5.9e-05
-3.12238e-05
2.27751e-05
0.000108007
0.000226732
0.000377109
0.000551964
0.000737871
0.000914658
0.00105548
0.00112748
0.00109313
0.000912082
0.000543514
-5.12003e-05
-0.00090572
-0.00204603
-0.00348805
-0.00523566
-0.00727943
-0.0095961
-0.0121488
-0.014888
-0.0177537
-0.0206777
-0.0235863
-0.026404
-0.0290568
-0.031475
-0.0335967
-0.0353703
-0.036756
-0.0377272
-0.0382709
-0.0383882
-0.0380923
-0.0374077
-0.0363689
-0.0350174
-0.0333999
-0.031566
-0.0295663
-0.0274505
-0.0252654
-0.0230543
-0.0208559
-0.0187034
-0.0166253
-0.0146445
-0.0127789
-0.0110421
-0.00944366
-0.00798953
-0.00668286
-0.00552452
-0.00451348
-0.00364737
-0.00292296
-0.00233655
-0.00188445
-0.00156327
-0.00137002
-0.0013009
-0.0013447
-0.00147507
-0.00170051
-0.00202618
-0.00246081
-0.00301522
-0.00370258
-0.00453834
-0.00554005
-0.00672717
-0.00812057
-0.00974204
-0.0116134
-0.0137557
-0.0161876
-0.0189242
-0.0219748
-0.0253417
-0.029017
-0.0329812
-0.0372006
-0.0416251
-0.0461864
-0.0507966
-0.0553473
-0.05971
-0.0637355
-0.0672566
-0.070091
-0.0720426
-0.0729061
-0.0724731
-0.0705368
-0.0668981
-0.0613721
-0.0537944
-0.0440269
-0.0319627
-0.0175287
-0.000690519
0.018545
0.0401308
0.0639801
0.0899683
0.117934
0.147696
0.17903
0.211693
0.245429
0.280005
0.315164
0.350614
0.386116
0.421432
0.456334
0.490634
0.524152
0.556717
0.588201
0.618485
0.647482
0.675126
0.701364
0.726174
0.74954
0.77147
0.791981
0.811101
0.828874
0.845347
0.860576
0.874616
0.887523
0.899351
0.910127
0.919955
0.928676
0.936826
0.942978
0.950516
0.952589
3.29624e-13
6.08533e-14
-2.12953e-16
-3.10071e-14
-3.68186e-14
-7.55569e-14
-2.22766e-13
-3.59292e-14
2.01198e-12
5.09485e-12
-4.28952e-12
-5.13569e-11
-1.14339e-10
-2.14187e-12
6.59991e-10
1.97475e-09
2.6572e-09
-1.09049e-09
-1.48657e-08
-4.12106e-08
-6.98869e-08
-6.64917e-08
3.24573e-08
3.06833e-07
8.13417e-07
1.51884e-06
2.21779e-06
2.46421e-06
1.55362e-06
-1.40453e-06
-7.29785e-06
-1.67033e-05
-2.94923e-05
-4.44141e-05
-5.87506e-05
-6.81501e-05
-6.6737e-05
-4.75716e-05
-3.48208e-06
7.17616e-05
0.000182028
0.000327309
0.000502289
0.000695212
0.000887226
0.00105238
0.00115837
0.00116798
0.00104136
0.000738742
0.000223604
-0.000534077
-0.00155474
-0.0028466
-0.0044037
-0.00620485
-0.00821363
-0.0103794
-0.0126394
-0.0149218
-0.0171489
-0.0192421
-0.0211251
-0.0227288
-0.0239946
-0.0248773
-0.0253472
-0.0253915
-0.025014
-0.0242346
-0.0230875
-0.0216184
-0.019882
-0.0179389
-0.0158523
-0.0136847
-0.0114956
-0.00933904
-0.00726203
-0.00530349
-0.00349359
-0.00185373
-0.000396967
0.000871302
0.00195243
0.00285339
0.00358573
0.00416436
0.00460661
0.00493114
0.00515717
0.0053037
0.00538882
0.00542922
0.00543967
0.00543275
0.00541851
0.00540459
0.00539722
0.00540572
0.00541865
0.00543535
0.00545044
0.00545724
0.00544651
0.00540611
0.00532059
0.0051706
0.00493235
0.00457725
0.00407167
0.00337689
0.00244942
0.00124185
-0.000295873
-0.0022145
-0.00456287
-0.00738467
-0.0107146
-0.0145738
-0.0189651
-0.0238681
-0.0292346
-0.0349839
-0.041
-0.0471291
-0.0531797
-0.0589239
-0.0641019
-0.068426
-0.0715876
-0.0732672
-0.0731447
-0.0709099
-0.0662743
-0.0589808
-0.0488244
-0.0356495
-0.0193575
8.3773e-05
0.0226411
0.0482128
0.0766367
0.107688
0.141111
0.176588
0.21377
0.252302
0.291805
0.331904
0.372236
0.412455
0.452241
0.491291
0.529346
0.566179
0.601596
0.635448
0.667616
0.698016
0.726596
0.75333
0.778222
0.801292
0.822588
0.842164
0.860087
0.876442
0.891312
0.904784
0.91695
0.927897
0.93771
0.946451
0.954249
0.960994
0.967231
0.971693
0.977507
0.978845
-1.28441e-12
-3.12796e-13
-5.73546e-14
9.31865e-14
1.6248e-13
1.61427e-13
4.36369e-14
6.34552e-14
1.39269e-12
4.30848e-12
5.85828e-13
-3.06474e-11
-9.03323e-11
-6.75111e-11
3.26436e-10
1.34285e-09
2.44419e-09
1.21682e-09
-6.93709e-09
-2.64308e-08
-5.49101e-08
-7.32e-08
-3.64739e-08
1.24701e-07
4.83377e-07
1.06875e-06
1.79493e-06
2.38217e-06
2.30042e-06
7.74036e-07
-3.11539e-06
-1.02048e-05
-2.09084e-05
-3.47974e-05
-5.0177e-05
-6.37616e-05
-7.05614e-05
-6.40834e-05
-3.69126e-05
1.83158e-05
0.000107608
0.000234093
0.000396481
0.000587719
0.000794065
0.0009948
0.00116271
0.00126542
0.00126752
0.00113336
0.000830336
0.000332281
-0.000377301
-0.00130253
-0.00243325
-0.00374422
-0.00519551
-0.00673405
-0.00829648
-0.00981281
-0.0112108
-0.0124206
-0.0133796
-0.0140362
-0.0143535
-0.0143114
-0.0139082
-0.0131596
-0.0120982
-0.0107706
-0.00923415
-0.00755327
-0.00579536
-0.00402692
-0.00230978
-0.000698294
0.000762963
0.00204062
0.00311304
0.00397009
0.00461224
0.0050492
0.00529815
0.00538173
0.0053262
0.00515955
0.0049098
0.00460374
0.00426584
0.0039176
0.00357716
0.00325917
0.00297492
0.00273278
0.00253855
0.00239599
0.00230726
0.00227306
0.00229128
0.00234514
0.00243389
0.00255927
0.00272261
0.00292522
0.00316772
0.00344947
0.00376769
0.00411642
0.00448523
0.00485782
0.00521039
0.00551027
0.00571442
0.00576854
0.00560683
0.00515262
0.00432028
0.00301855
0.00115535
-0.0013562
-0.00458991
-0.00859757
-0.0133996
-0.0189756
-0.0252558
-0.0321135
-0.03936
-0.0467421
-0.0539461
-0.0606074
-0.0663142
-0.0706235
-0.0730782
-0.0732255
-0.0706396
-0.06492
-0.0557485
-0.0428802
-0.0261539
-0.00550624
0.0190275
0.0473097
0.0791128
0.114128
0.15197
0.192199
0.23434
0.277895
0.322356
0.367228
0.412032
0.456326
0.49971
0.541832
0.582391
0.621143
0.657897
0.692514
0.724899
0.755007
0.782829
0.808392
0.83175
0.852982
0.872181
0.889463
0.904941
0.918742
0.93099
0.941812
0.951333
0.959661
0.966915
0.97318
0.978603
0.983112
0.987231
0.989828
0.993786
0.994021
5.05624e-12
1.46403e-12
4.14824e-13
-2.23205e-13
-5.38028e-13
-6.70694e-13
-7.75438e-13
-8.27377e-13
-1.36009e-13
2.14542e-12
2.50771e-12
-1.305e-11
-5.77103e-11
-8.84464e-11
7.2066e-11
6.96285e-10
1.76634e-09
2.16357e-09
-1.10923e-09
-1.24634e-08
-3.44313e-08
-6.0727e-08
-6.71794e-08
-5.5043e-09
1.92044e-07
5.88528e-07
1.19388e-06
1.89612e-06
2.38846e-06
2.12122e-06
3.15002e-07
-3.92956e-06
-1.14041e-05
-2.24512e-05
-3.65482e-05
-5.18901e-05
-6.50729e-05
-7.09901e-05
-6.30421e-05
-3.37232e-05
2.44101e-05
0.000117456
0.000248705
0.000417203
0.00061656
0.000834255
0.00105161
0.00124457
0.00138534
0.0014447
0.00139497
0.00121313
0.000883946
0.000402607
-0.000223433
-0.000973641
-0.00181483
-0.00270283
-0.00358536
-0.00440576
-0.00510739
-0.00563822
-0.00595507
-0.00602735
-0.00583969
-0.00539333
-0.00470618
-0.00381143
-0.00275503
-0.00159212
-0.000382889
0.00081183
0.00193481
0.00293619
0.00377639
0.00442809
0.00487706
0.005122
0.00517333
0.0050513
0.00478346
0.00440201
0.00394096
0.00343366
0.00291068
0.00239815
0.00191681
0.00148155
0.00110153
0.000780762
0.000518917
0.000312438
0.000155664
4.19276e-05
-3.54707e-05
-8.25003e-05
-0.00010403
-0.000104546
-9.28399e-05
-6.97605e-05
-3.24468e-05
2.25605e-05
0.000100221
0.000206907
0.000350452
0.000539955
0.000785333
0.00109646
0.00148182
0.00194654
0.00248991
0.0031022
0.00376128
0.00442909
0.00504842
0.00554066
0.00580502
0.00572
0.00514839
0.00394531
0.00196675
-0.000916081
-0.00480164
-0.00974168
-0.0157254
-0.0226656
-0.0303882
-0.0386244
-0.0470018
-0.0550736
-0.0623167
-0.0681535
-0.0719794
-0.0731858
-0.0712106
-0.0655222
-0.0556993
-0.0414296
-0.0225238
0.0010705
0.029264
0.061833
0.0984322
0.13861
0.181827
0.227482
0.274937
0.323538
0.372646
0.421646
0.469972
0.517118
0.562643
0.606183
0.647445
0.686214
0.722344
0.755753
0.786412
0.814352
0.839637
0.862371
0.882681
0.900712
0.91662
0.930576
0.942743
0.953287
0.962368
0.970141
0.976752
0.982329
0.987004
0.990869
0.994077
0.996573
0.998852
0.999882
1.00231
1.0016
-2.01407e-11
-6.55015e-12
-2.27604e-12
3.89505e-13
1.86102e-12
2.53157e-12
2.73638e-12
2.65503e-12
2.72137e-12
3.81964e-12
5.40724e-12
5.71715e-13
-2.43653e-11
-6.6201e-11
-4.73548e-11
2.25216e-10
9.42281e-10
1.85451e-09
1.55772e-09
-2.97613e-09
-1.55466e-08
-3.73271e-08
-6.05049e-08
-6.05541e-08
8.44595e-09
2.08586e-07
5.95718e-07
1.17571e-06
1.84258e-06
2.31221e-06
2.07652e-06
4.1081e-07
-3.53333e-06
-1.05274e-05
-2.09579e-05
-3.44416e-05
-4.94271e-05
-6.28756e-05
-7.0122e-05
-6.50136e-05
-4.03882e-05
1.10987e-05
9.58575e-05
0.000218084
0.000378504
0.000573345
0.000793776
0.00102595
0.0012518
0.00145051
0.00160065
0.00168268
0.00168156
0.00158915
0.001406
0.00114236
0.000818078
0.000461438
0.000106892
-0.000208004
-0.000446226
-0.000575054
-0.000569576
-0.000415528
-0.000111134
0.000332269
0.000890894
0.00153042
0.00220895
0.00288068
0.00349993
0.00402512
0.00442225
0.00466758
0.00474927
0.00466785
0.00443551
0.00407438
0.00361401
0.00308833
0.00253244
0.00197961
0.00145873
0.000992424
0.000595947
0.000276991
3.62041e-05
-0.000131666
-0.000236224
-0.000289714
-0.000305365
-0.000295988
-0.000272947
-0.000245544
-0.000220798
-0.000203518
-0.000196525
-0.000200815
-0.000208626
-0.000220831
-0.000236664
-0.000254969
-0.000273381
-0.000287809
-0.000291711
-0.000275411
-0.000225568
-0.000125077
4.63275e-05
0.000310463
0.000687843
0.00119347
0.00183138
0.00258829
0.00342704
0.00428078
0.00504881
0.00559476
0.0057463
0.00531301
0.00409198
0.00188808
-0.00146358
-0.00607301
-0.0119706
-0.0190853
-0.0272283
-0.0360891
-0.0452102
-0.0540307
-0.061891
-0.0680627
-0.0717878
-0.072318
-0.0689567
-0.0611073
-0.0483
-0.0302221
-0.00673556
0.022114
0.0561002
0.0948303
0.137768
0.184262
0.233574
0.284915
0.337481
0.390483
0.443176
0.494875
0.54498
0.592984
0.638473
0.68114
0.720765
0.757224
0.790472
0.820529
0.847475
0.87144
0.892587
0.911099
0.927186
0.941059
0.95293
0.963009
0.971493
0.97858
0.984444
0.989246
0.993137
0.996243
0.998691
1.00057
1.00202
1.00298
1.0039
1.00384
1.0052
1.00387
8.11838e-11
2.86101e-11
1.1193e-11
1.94525e-13
-6.30675e-12
-9.55076e-12
-1.09503e-11
-1.13307e-11
-1.10996e-11
-1.00641e-11
-7.89857e-12
-6.75754e-12
-1.49057e-11
-4.21029e-11
-7.20214e-11
-1.43338e-11
3.0708e-10
1.01096e-09
1.755e-09
1.15352e-09
-3.52536e-09
-1.55228e-08
-3.56692e-08
-5.70677e-08
-5.86019e-08
-6.82827e-10
1.71313e-07
5.09812e-07
1.02991e-06
1.65762e-06
2.17103e-06
2.15351e-06
9.85772e-07
-2.09447e-06
-7.8424e-06
-1.67592e-05
-2.87665e-05
-4.28485e-05
-5.67341e-05
-6.67069e-05
-6.76274e-05
-5.3231e-05
-1.67207e-05
4.83807e-05
0.000147215
0.000282558
0.000453946
0.000657144
0.00088409
0.00112341
0.00136148
0.00158396
0.00177759
0.00193205
0.00204155
0.00210593
0.00213108
0.00212856
0.00211433
0.0021069
0.00212492
0.00218465
0.0022975
0.00246816
0.00269343
0.00296197
0.00325507
0.00354835
0.0038142
0.00402469
0.00415465
0.00418444
0.00410219
0.00390523
0.00360049
0.00320386
0.00273861
0.00223303
0.00171755
0.00122183
0.000771889
0.000387906
8.26811e-05
-0.000138942
-0.000279733
-0.000348882
-0.000360167
-0.000329784
-0.000274147
-0.000207961
-0.000142841
-8.65972e-05
-4.32473e-05
-1.36416e-05
3.50199e-06
1.05609e-05
1.08875e-05
8.65637e-06
4.00235e-06
-4.22833e-06
-1.74707e-05
-3.74939e-05
-6.59016e-05
-0.00010331
-0.000148059
-0.000194732
-0.00023258
-0.000244247
-0.000205351
-8.54931e-05
0.000148791
0.000528802
0.00107621
0.00179383
0.00265554
0.00359696
0.00450879
0.00523774
0.00557539
0.00528852
0.00412766
0.00185353
-0.00173173
-0.00675112
-0.0132203
-0.0210203
-0.0298775
-0.039355
-0.0488627
-0.0576734
-0.0649578
-0.0698286
-0.0713935
-0.068809
-0.0613367
-0.0483899
-0.0295717
-0.0047005
0.0261792
0.0627994
0.104685
0.151185
0.201508
0.254762
0.310003
0.366278
0.422661
0.478292
0.532402
0.584328
0.633532
0.679601
0.722242
0.761281
0.796648
0.828367
0.856532
0.881301
0.902881
0.921506
0.93743
0.950916
0.962229
0.971622
0.979338
0.985604
0.990627
0.994597
0.997683
1.00003
1.00176
1.003
1.00385
1.00436
1.00465
1.00466
1.00479
1.00414
1.00492
1.00333
-3.30276e-10
-1.23315e-10
-5.20712e-11
-6.86627e-12
2.12545e-11
3.62336e-11
4.33635e-11
4.57629e-11
4.54248e-11
4.37105e-11
4.1857e-11
4.04155e-11
3.6819e-11
2.32495e-11
-6.51765e-12
-3.12617e-11
3.54225e-11
3.45902e-10
9.90976e-10
1.66876e-09
1.21453e-09
-2.67038e-09
-1.28502e-08
-3.06043e-08
-5.15303e-08
-6.01753e-08
-2.56777e-08
9.76042e-08
3.59561e-07
7.89793e-07
1.35824e-06
1.92603e-06
2.19908e-06
1.70402e-06
-1.90014e-07
-4.18219e-06
-1.08713e-05
-2.05128e-05
-3.27283e-05
-4.62166e-05
-5.85322e-05
-6.59993e-05
-6.38209e-05
-4.64135e-05
-7.95752e-06
5.68925e-05
0.000152233
0.000280196
0.000440431
0.000629878
0.000842927
0.00107194
0.00130813
0.00154259
0.00176742
0.00197668
0.00216704
0.00233803
0.00249177
0.00263229
0.0027644
0.00289246
0.00301908
0.0031441
0.00326397
0.00337156
0.00345673
0.00350731
0.00351062
0.00345513
0.00333228
0.00313792
0.00287343
0.00254617
0.00216918
0.00176031
0.00134056
0.000932187
0.000556418
0.000231397
-2.96118e-05
-0.00021943
-0.000337446
-0.000389307
-0.000385896
-0.000341671
-0.000272673
-0.000194464
-0.00012028
-5.96596e-05
-1.76798e-05
5.12858e-06
1.22228e-05
9.86911e-06
5.29244e-06
3.82036e-06
4.63775e-06
5.30586e-06
6.17081e-06
6.16016e-06
3.42615e-06
-4.7317e-06
-2.14336e-05
-4.93867e-05
-8.89223e-05
-0.000135928
-0.000179668
-0.000200936