/*--------------------------------*- C++ -*----------------------------------*\
| =========                 |                                                 |
| \\      /  F ield         | OpenFOAM: The Open Source CFD Toolbox           |
|  \\    /   O peration     | Version:  4.1                                   |
|   \\  /    A nd           | Web:      www.OpenFOAM.org                      |
|    \\/     M anipulation  |                                                 |
\*---------------------------------------------------------------------------*/
FoamFile
{
    version     2.0;
    format      ascii;
    class       volScalarField;
    location    "0.04";
    object      T;
}
// * * * * * * * * * * * * * * * * * * * * * * * * * * * * * * * * * * * * * //

dimensions      [0 0 0 1 0 0 0];

internalField   nonuniform List<scalar> 
12225
(
1.11552
1.23317
1.29917
1.34126
1.36974
1.38851
1.40119
1.41004
1.41642
1.42116
1.42479
1.42763
1.4299
1.43177
1.4333
1.43469
1.43581
1.43518
0.860947
0.707839
0.632408
0.594821
0.576427
0.569644
0.569414
0.572758
0.577971
0.584077
0.590513
0.596954
0.603214
0.609181
0.61481
0.619994
0.624958
0.628865
1.03458
1.08006
1.10414
1.11423
1.11556
1.11189
1.10559
1.09802
1.08996
1.08185
1.07398
1.06647
1.05942
1.05284
1.04677
1.04114
1.0362
1.0315
1.00165
0.998855
0.992981
0.988432
0.986044
0.98539
0.98593
0.9872
0.988859
0.990683
0.992533
0.994323
0.995998
0.997539
0.998939
1.00018
1.0013
1.00234
1.00023
1.00039
1.00026
1.00043
1.00067
1.0008
1.00084
1.0008
1.00072
1.00062
1.00051
1.00042
1.00033
1.00027
1.00023
1.00019
1.00021
1.00021
0.999584
0.999244
0.998899
0.998714
0.99862
0.998535
0.998453
0.99839
0.998342
0.998302
0.998271
0.998244
0.99822
0.998204
0.998189
0.998174
0.998175
0.998153
0.999929
1.00011
1.00016
1.00019
1.00023
1.00025
1.00026
1.00026
1.00026
1.00026
1.00026
1.00025
1.00024
1.00023
1.00022
1.00021
1.00021
1.00019
0.999971
1.00007
1.00006
1.00002
1.00001
1.00001
1.00001
1
1
1
1
1.00001
1.00002
1.00002
1.00002
1.00003
1.00003
1.00003
0.999979
1.00004
1.00003
1.00002
1.00002
1.00002
1.00002
1.00002
1.00002
1.00003
1.00003
1.00003
1.00003
1.00003
1.00003
1.00003
1.00003
1.00003
0.999978
1.00002
1.00001
0.999998
0.999998
1
0.999999
0.999997
0.999996
0.999997
0.999995
0.999996
1
0.999999
0.999995
1
0.999995
0.999997
0.999985
1.00001
1.00001
1
1
0.999997
0.999997
0.999997
1
1
1
0.999998
0.999997
1
1
1
0.999997
1
0.999988
1.00001
1.00001
0.999999
0.999997
0.999999
0.999998
0.999999
0.999998
0.999996
0.999996
0.999997
0.999999
0.999999
1
1
0.999996
1
0.999989
1.00001
1.00001
1
0.999999
0.999999
1
1
0.999999
0.999998
1
0.999998
0.999999
1
0.999999
1
0.999993
0.999997
0.999991
1
1.00001
1.00001
1
1
0.999997
0.999998
0.999999
0.999998
0.999996
0.999998
0.999997
0.999997
0.999997
0.999997
0.999994
1
0.999993
1
1.00001
1.00001
1
1
0.999998
0.999999
0.999999
0.999999
1
0.999999
0.999999
1
0.999995
0.999998
0.999992
0.999998
0.999994
1
1.00001
1
1
1
1
0.999999
0.999999
0.999997
0.999997
1
1
1
0.999999
0.999998
0.999993
0.999999
0.999993
1
1
1
1
1
1
1
0.999999
1
1
0.999999
0.999998
0.999999
1
1
0.999997
0.999999
0.999995
1
1
1.00001
1.00001
1.00001
1
1
1
1
1
1
1.00001
1.00001
1
1
0.999997
1
0.999995
1
1
1
1
1
1.00001
1
0.999999
1
1
1
0.999997
0.999995
0.999999
0.999997
0.999991
0.999995
0.999992
1
1
1
1
1
1.00001
1.00001
1.00001
1
1.00001
1.00001
1.00001
1.00001
1.00001
1.00001
1.00001
1.00002
0.999991
0.999999
1.00001
1
0.999996
0.999991
0.999991
0.999988
0.999986
0.999985
0.999981
0.999979
0.999975
0.999972
0.999972
0.999972
0.999964
0.999966
0.999988
1
1.00001
1.00001
1.00002
1.00002
1.00003
1.00004
1.00004
1.00005
1.00006
1.00006
1.00007
1.00007
1.00008
1.00008
1.00008
1.00009
0.999982
1
1
0.999974
0.999943
0.999921
0.9999
0.999878
0.99986
0.999842
0.999828
0.999815
0.999802
0.999795
0.999786
0.999779
0.99977
0.999767
0.999965
1.00007
1.00018
1.00024
1.0003
1.00037
1.00043
1.00049
1.00054
1.00058
1.00062
1.00065
1.00067
1.00069
1.00071
1.00072
1.00073
1.00074
0.999753
0.999568
0.999366
0.999131
0.998913
0.998704
0.998509
0.998342
0.998201
0.998088
0.998002
0.997936
0.997889
0.997856
0.997838
0.997829
0.997822
0.997814
0.999992
1.00043
1.00095
1.00167
1.00247
1.00316
1.00368
1.00405
1.00429
1.00442
1.00447
1.00446
1.0044
1.00432
1.00421
1.00409
1.00396
1.00386
0.999945
0.996247
0.990161
0.98452
0.980273
0.977358
0.975527
0.97452
0.974115
0.974128
0.974432
0.974931
0.975556
0.976259
0.977006
0.977763
0.978549
0.979195
1.0214
1.05634
1.0798
1.09471
1.10362
1.10848
1.11069
1.11118
1.11056
1.10922
1.10743
1.10537
1.10317
1.1009
1.09862
1.09638
1.09417
1.09224
0.922802
0.82784
0.774466
0.743959
0.725618
0.714657
0.708441
0.705217
0.70388
0.70374
0.704359
0.705454
0.70684
0.708395
0.710039
0.711701
0.713398
0.714943
1.06291
1.12901
1.16726
1.19166
1.20826
1.21975
1.22781
1.23361
1.2379
1.24113
1.24365
1.24564
1.24725
1.24858
1.24971
1.25063
1.25155
1.25214
-7.0906e-22
-2.17324e-22
-8.19239e-23
-8.29654e-23
1.73164e-24
5.01633e-23
1.09273e-22
1.67837e-22
2.05139e-22
2.17325e-22
2.09411e-22
1.87379e-22
1.57714e-22
1.26128e-22
9.66735e-23
7.15336e-23
5.13675e-23
3.5855e-23
2.42154e-23
1.55802e-23
9.19955e-24
4.5079e-24
1.10599e-24
-1.2886e-24
-2.8874e-24
-3.86103e-24
-4.35392e-24
-4.48978e-24
-4.37285e-24
-4.08841e-24
-3.70371e-24
-3.26969e-24
-2.82347e-24
-2.39193e-24
-1.99671e-24
-1.65613e-24
-1.36421e-24
-1.00719e-24
-2.18672e-25
1.54251e-24
3.63688e-24
-4.60288e-25
-3.22826e-23
-1.33227e-22
-3.26037e-22
-4.34977e-22
3.89557e-22
4.50374e-21
1.64057e-20
4.07965e-20
7.18493e-20
6.14651e-20
-1.51378e-19
-9.64867e-19
-3.17559e-18
-8.06737e-18
-1.71178e-17
-3.066e-17
-4.4328e-17
-4.15421e-17
2.00434e-17
2.29696e-16
7.51573e-16
1.85311e-15
3.91699e-15
7.4031e-15
1.27039e-14
1.98085e-14
2.76643e-14
3.31116e-14
2.92784e-14
3.39425e-15
-6.58711e-14
-2.11178e-13
-4.78631e-13
-9.27942e-13
-1.62867e-12
-2.64983e-12
-4.03955e-12
-5.7908e-12
-7.78952e-12
-9.74174e-12
-1.10786e-11
-1.08413e-11
-7.5516e-12
9.16168e-13
1.74417e-11
4.57094e-11
9.01574e-11
1.5577e-10
2.47638e-10
3.70212e-10
5.26156e-10
7.14715e-10
9.29514e-10
1.15573e-09
1.3666e-09
1.51934e-09
1.55052e-09
1.37146e-09
8.64353e-10
-1.17999e-10
-1.73932e-09
-4.1634e-09
-7.54936e-09
-1.20311e-08
-1.7697e-08
-2.45666e-08
-3.25677e-08
-4.15152e-08
-5.10938e-08
-6.08483e-08
-7.0182e-08
-7.83661e-08
-8.45595e-08
-8.78414e-08
-8.72532e-08
-8.18489e-08
-7.07511e-08
-5.32076e-08
-2.86467e-08
3.27568e-09
4.2638e-08
8.92304e-08
1.42547e-07
2.01795e-07
2.65923e-07
3.33658e-07
4.0357e-07
4.74125e-07
5.43763e-07
6.10954e-07
6.74266e-07
7.32417e-07
7.84324e-07
8.29135e-07
8.6626e-07
8.95367e-07
9.16348e-07
9.29296e-07
9.34478e-07
9.32322e-07
9.23403e-07
9.0836e-07
8.87822e-07
8.62365e-07
8.32615e-07
7.99246e-07
7.628e-07
7.23669e-07
6.82343e-07
6.39429e-07
5.9513e-07
5.49824e-07
5.04343e-07
4.58741e-07
4.13441e-07
3.69185e-07
3.26035e-07
2.84821e-07
2.45714e-07
2.08673e-07
1.74597e-07
1.43908e-07
1.14739e-07
8.79143e-08
6.55094e-08
4.73941e-08
3.3007e-08
2.1803e-08
1.32798e-08
6.97912e-09
2.49087e-09
-5.44249e-10
-2.42786e-09
-3.39813e-09
-3.63746e-09
-3.19699e-09
-2.25239e-09
-3.97791e-10
7.1335e-21
-3.21704e-21
6.4854e-22
-6.72016e-22
-3.04735e-21
-6.09018e-21
-8.73794e-21
-1.0338e-20
-1.08332e-20
-1.04599e-20
-9.49846e-21
-8.20393e-21
-6.79468e-21
-5.43317e-21
-4.21893e-21
-3.19688e-21
-2.37245e-21
-1.72723e-21
-1.23188e-21
-8.55209e-22
-5.69599e-22
-3.53148e-22
-1.89683e-22
-6.76139e-23
2.1486e-23
8.40521e-23
1.25305e-22
1.49672e-22
1.60972e-22
1.62486e-22
1.56979e-22
1.46729e-22
1.33557e-22
1.18874e-22
1.03743e-22
8.89716e-23
7.52715e-23
6.33726e-23
5.35514e-23
4.31217e-23
2.02187e-23
-4.28093e-23
-1.72847e-22
-2.86533e-22
1.37774e-22
2.68156e-21
1.04798e-20
2.65627e-20
4.45292e-20
2.07921e-20
-1.85509e-19
-9.07109e-19
-2.74438e-18
-6.41899e-18
-1.18915e-17
-1.57086e-17
-4.87248e-18
5.49854e-17
2.38863e-16
6.87756e-16
1.63061e-15
3.37664e-15
6.22315e-15
1.01819e-14
1.43757e-14
1.59072e-14
7.9893e-15
-2.28109e-14
-1.00136e-13
-2.61664e-13
-5.61837e-13
-1.0709e-12
-1.866e-12
-3.00818e-12
-4.49712e-12
-6.19426e-12
-7.70505e-12
-8.21428e-12
-6.27511e-12
4.34389e-13
1.5354e-11
4.32234e-11
9.01092e-11
1.63145e-10
2.69815e-10
4.16574e-10
6.06594e-10
8.36423e-10
1.09141e-09
1.33984e-09
1.52591e-09
1.5619e-09
1.32024e-09
6.26501e-10
-7.45052e-10
-3.07145e-09
-6.6739e-09
-1.19003e-08
-1.90937e-08
-2.85398e-08
-4.03807e-08
-5.44468e-08
-7.01338e-08
-8.64758e-08
-1.01964e-07
-1.14507e-07
-1.21411e-07
-1.19416e-07
-1.04783e-07
-7.34521e-08
-2.12656e-08
5.57594e-08
1.61108e-07
2.97428e-07
4.66186e-07
6.67361e-07
8.99201e-07
1.15806e-06
1.43837e-06
1.73268e-06
2.03196e-06
2.32585e-06
2.60321e-06
2.85258e-06
3.0628e-06
3.22367e-06
3.32645e-06
3.36444e-06
3.33339e-06
3.23174e-06
3.06081e-06
2.82469e-06
2.53002e-06
2.18566e-06
1.80222e-06
1.39164e-06
9.66644e-07
5.40133e-07
1.24717e-07
-2.6775e-07
-6.26643e-07
-9.43096e-07
-1.2103e-06
-1.42336e-06
-1.57895e-06
-1.67511e-06
-1.71273e-06
-1.69555e-06
-1.62831e-06
-1.5154e-06
-1.36328e-06
-1.18215e-06
-9.79492e-07
-7.61913e-07
-5.40304e-07
-3.22718e-07
-1.14474e-07
7.65632e-08
2.46343e-07
3.91562e-07
5.07796e-07
5.96041e-07
6.5509e-07
6.8648e-07
6.92876e-07
6.75777e-07
6.39699e-07
5.90188e-07
5.32037e-07
4.69269e-07
4.05184e-07
3.42351e-07
2.82644e-07
2.27256e-07
1.76863e-07
1.31528e-07
9.13812e-08
5.58157e-08
2.66302e-08
2.98303e-09
8.74464e-20
2.09692e-21
1.6104e-20
8.35998e-20
1.68118e-19
2.36619e-19
2.76082e-19
2.87468e-19
2.78103e-19
2.55508e-19
2.25465e-19
1.92315e-19
1.59339e-19
1.28784e-19
1.01925e-19
7.92512e-20
6.07026e-20
4.58826e-20
3.42342e-20
2.51639e-20
1.81237e-20
1.26542e-20
8.39772e-21
5.08838e-21
2.53303e-21
5.89526e-22
-8.51203e-22
-1.8776e-21
-2.56486e-21
-2.9786e-21
-3.17644e-21
-3.20858e-21
-3.11807e-21
-2.94108e-21
-2.70739e-21
-2.44082e-21
-2.15968e-21
-1.87732e-21
-1.60422e-21
-1.35486e-21
-1.16274e-21
-1.09266e-21
-1.18843e-21
-1.1879e-21
2.56454e-22
6.85511e-21
2.49729e-20
5.72683e-20
7.61306e-20
-4.50269e-20
-6.57642e-19
-2.47189e-18
-6.44676e-18
-1.27283e-17
-1.71308e-17
-2.63319e-18
7.72125e-17
3.24427e-16
9.26414e-16
2.16488e-15
4.34232e-15
7.50338e-15
1.07449e-14
1.08217e-14
-2.80969e-16
-3.90248e-14
-1.35029e-13
-3.35642e-13
-7.07437e-13
-1.32903e-12
-2.26587e-12
-3.51363e-12
-4.89301e-12
-5.87792e-12
-5.34349e-12
-1.2345e-12
9.81652e-12
3.28453e-11
7.47421e-11
1.44038e-10
2.49958e-10
4.00326e-10
5.97829e-10
8.34164e-10
1.08173e-09
1.28274e-09
1.3363e-09
1.08443e-09
2.9933e-10
-1.32501e-09
-4.17216e-09
-8.68798e-09
-1.5344e-08
-2.45724e-08
-3.66658e-08
-5.16368e-08
-6.90344e-08
-8.77193e-08
-1.05606e-07
-1.19386e-07
-1.24258e-07
-1.13686e-07
-8.01027e-08
-1.47665e-08
9.16877e-08
2.48559e-07
4.64158e-07
7.44706e-07
1.0931e-06
1.50766e-06
1.98093e-06
2.4987e-06
3.03932e-06
3.57349e-06
4.06456e-06
4.46944e-06
4.74011e-06
4.82569e-06
4.67496e-06
4.23932e-06
3.47573e-06
2.34966e-06
8.378e-07
-1.06979e-06
-3.36818e-06
-6.03688e-06
-9.04012e-06
-1.2328e-05
-1.58381e-05
-1.94989e-05
-2.32323e-05
-2.69571e-05
-3.05924e-05
-3.40606e-05
-3.72914e-05
-4.02243e-05
-4.2811e-05
-4.50166e-05
-4.68187e-05
-4.82065e-05
-4.91785e-05
-4.97446e-05
-4.99251e-05
-4.97478e-05
-4.92421e-05
-4.84324e-05
-4.73463e-05
-4.60181e-05
-4.44773e-05
-4.27417e-05
-4.08288e-05
-3.87714e-05
-3.65832e-05
-3.4274e-05
-3.18809e-05
-2.94201e-05
-2.69061e-05
-2.43771e-05
-2.18537e-05
-1.93572e-05
-1.6939e-05
-1.46083e-05
-1.23953e-05
-1.03492e-05
-8.46652e-06
-6.75624e-06
-5.25211e-06
-3.96433e-06
-2.88647e-06
-2.00412e-06
-1.29879e-06
-7.50006e-07
-3.36663e-07
-3.81821e-08
1.64379e-07
2.87406e-07
3.44171e-07
3.41619e-07
2.93337e-07
1.59373e-07
-3.1556e-20
2.87571e-19
-8.76291e-19
-2.71705e-18
-4.13743e-18
-4.89495e-18
-5.1064e-18
-4.94318e-18
-4.56371e-18
-4.07659e-18
-3.54792e-18
-3.01919e-18
-2.51876e-18
-2.06503e-18
-1.6677e-18
-1.32952e-18
-1.0483e-18
-8.18761e-19
-6.34024e-19
-4.86711e-19
-3.69751e-19
-2.76887e-19
-2.02941e-19
-1.43856e-19
-9.65809e-20
-5.88672e-20
-2.90493e-20
-5.84987e-21
1.17616e-20
2.46598e-20
3.3614e-20
3.93128e-20
4.23731e-20
4.33437e-20
4.27055e-20
4.08745e-20
3.82038e-20
3.49899e-20
3.14752e-20
2.78453e-20
2.42075e-20
2.05595e-20
1.6835e-20
1.33191e-20
1.19734e-20
1.89686e-20
4.63564e-20
1.03418e-19
1.53395e-19
-5.30729e-21
-9.61635e-19
-3.92002e-18
-1.04354e-17
-2.02734e-17
-2.45712e-17
1.00065e-17
1.69932e-16
6.32906e-16
1.68945e-15
3.67204e-15
6.62683e-15
9.43538e-15
7.96165e-15
-8.23695e-15
-6.08288e-14
-1.88543e-13
-4.51193e-13
-9.25533e-13
-1.68114e-12
-2.71745e-12
-3.83622e-12
-4.42033e-12
-3.09612e-12
2.71809e-12
1.73209e-11
4.71422e-11
1.00771e-10
1.88118e-10
3.18039e-10
4.93552e-10
7.03738e-10
9.11535e-10
1.0372e-09
9.38121e-10
3.87417e-10
-9.44211e-10
-3.49593e-09
-7.80335e-09
-1.44512e-08
-2.39775e-08
-3.67155e-08
-5.25614e-08
-7.06654e-08
-8.9053e-08
-1.042e-07
-1.10607e-07
-1.00437e-07
-6.33109e-08
1.36189e-08
1.45143e-07
3.46695e-07
6.31725e-07
1.01045e-06
1.48686e-06
2.05551e-06
2.69833e-06
3.38164e-06
4.05368e-06
4.64316e-06
5.05923e-06
5.19297e-06
4.9209e-06
4.11046e-06
2.62721e-06
3.43719e-07
-2.85057e-06
-7.03904e-06
-1.22681e-05
-1.85386e-05
-2.57996e-05
-3.39445e-05
-4.28112e-05
-5.21856e-05
-6.18091e-05
-7.13881e-05
-8.06082e-05
-8.91494e-05
-9.67033e-05
-0.00010299
-0.000107774
-0.000110876
-0.000112187
-0.000111665
-0.000109343
-0.000105321
-9.97613e-05
-9.2885e-05
-8.49578e-05
-7.62779e-05
-6.71629e-05
-5.79332e-05
-4.88951e-05
-4.03284e-05
-3.24812e-05
-2.55704e-05
-1.97884e-05
-1.52573e-05
-1.20252e-05
-1.00848e-05
-9.41271e-06
-9.94195e-06
-1.15021e-05
-1.38981e-05
-1.69634e-05
-2.04943e-05
-2.41835e-05
-2.78625e-05
-3.13097e-05
-3.4316e-05
-3.67461e-05
-3.84792e-05
-3.94472e-05
-3.96191e-05
-3.90083e-05
-3.76716e-05
-3.56817e-05
-3.31576e-05
-3.02453e-05
-2.70904e-05
-2.38266e-05
-2.05693e-05
-1.74128e-05
-1.44284e-05
-1.16648e-05
-9.15097e-06
-6.89596e-06
-4.90593e-06
-3.17074e-06
-1.75081e-06
-5.10598e-07
-7.93889e-18
-1.39751e-17
1.67542e-17
4.60869e-17
6.16572e-17
6.65722e-17
6.52683e-17
6.06227e-17
5.45175e-17
4.79948e-17
4.157e-17
3.54947e-17
2.99131e-17
2.49104e-17
2.05244e-17
1.67529e-17
1.3564e-17
1.0906e-17
8.71628e-18
6.92809e-18
5.47557e-18
4.29772e-18
3.34099e-18
2.56077e-18
1.92156e-18
1.39623e-18
9.6449e-19
6.11233e-19
3.24916e-19
9.63205e-20
-8.23086e-20
-2.17798e-19
-3.16328e-19
-3.83565e-19
-4.24699e-19
-4.44454e-19
-4.47081e-19
-4.36357e-19
-4.15589e-19
-3.87644e-19
-3.55002e-19
-3.19862e-19
-2.84231e-19
-2.49668e-19
-2.15781e-19
-1.76259e-19
-1.13206e-19
2.19504e-22
1.55731e-19
1.55958e-19
-7.27775e-19
-4.22415e-18
-1.30389e-17
-2.837e-17
-4.06522e-17
-6.76633e-18
1.9195e-16
8.02962e-16
2.21683e-15
4.79942e-15
8.23918e-15
9.89818e-15
1.50376e-15
-3.63085e-14
-1.41081e-13
-3.74107e-13
-8.16208e-13
-1.53709e-12
-2.51061e-12
-3.43729e-12
-3.43148e-12
-5.45821e-13
8.84046e-12
3.06295e-11
7.32718e-11
1.4707e-10
2.61541e-10
4.19505e-10
6.06375e-10
7.7328e-10
8.13525e-10
5.33736e-10
-3.75766e-10
-2.36229e-09
-6.00898e-09
-1.1989e-08
-2.09497e-08
-3.32994e-08
-4.88715e-08
-6.64558e-08
-8.32079e-08
-9.39813e-08
-9.06757e-08
-6.17432e-08
7.95549e-09
1.36704e-07
3.44644e-07
6.51403e-07
1.07244e-06
1.61389e-06
2.26563e-06
2.99593e-06
3.74619e-06
4.42454e-06
4.90235e-06
5.01327e-06
4.55599e-06
3.30143e-06
1.00498e-06
-2.57636e-06
-7.66223e-06
-1.44237e-05
-2.2956e-05
-3.32518e-05
-4.51763e-05
-5.84486e-05
-7.26289e-05
-8.71175e-05
-0.000101164
-0.000113888
-0.000124314
-0.000131415
-0.000134163
-0.000131589
-0.000122842
-0.000107242
-8.43303e-05
-5.39028e-05
-1.60376e-05
2.88969e-05
8.0253e-05
0.000137124
0.000198376
0.000262687
0.000328623
0.000394716
0.000459538
0.000521735
0.000580089
0.000633519
0.00068108
0.000722037
0.000755935
0.000782551
0.000801827
0.00081365
0.000818056
0.000815367
0.000806
0.000790235
0.000768264
0.000740656
0.000707986
0.000670631
0.000629035
0.000584156
0.000536566
0.000486997
0.000436348
0.000385414
0.000335092
0.000286213
0.000239542
0.000195913
0.000155819
0.00011966
8.78592e-05
6.06258e-05
3.79425e-05
1.96103e-05
5.30127e-06
-5.39384e-06
-1.29264e-05
-1.77565e-05
-2.03236e-05
-2.10151e-05
-2.01765e-05
-1.79978e-05
-1.50184e-05
-9.94465e-06
2.54661e-16
3.10384e-16
-1.62054e-16
-4.95438e-16
-6.34384e-16
-6.57733e-16
-6.26258e-16
-5.70429e-16
-5.07048e-16
-4.44235e-16
-3.85324e-16
-3.31371e-16
-2.82651e-16
-2.39213e-16
-2.00976e-16
-1.67729e-16
-1.39156e-16
-1.14858e-16
-9.43857e-17
-7.72696e-17
-6.30407e-17
-5.12497e-17
-4.1482e-17
-3.33708e-17
-2.66048e-17
-2.09313e-17
-1.6153e-17
-1.21203e-17
-8.72109e-18
-5.87004e-18
-3.50013e-18
-1.55581e-18
1.13123e-20
1.24515e-18
2.18656e-18
2.87384e-18
3.34296e-18
3.62743e-18
3.75825e-18
3.76377e-18
3.66966e-18
3.49883e-18
3.27131e-18
3.00423e-18
2.71278e-18
2.41427e-18
2.13778e-18
1.93548e-18
1.86665e-18
1.86944e-18
1.36619e-18
-1.51138e-18
-1.06942e-17
-3.09743e-17
-5.95216e-17
-6.01786e-17
9.10631e-17
6.87186e-16
2.2411e-15
5.31724e-15
9.71348e-15
1.22388e-14
2.1112e-15
-4.66269e-14
-1.84359e-13
-4.90603e-13
-1.05851e-12
-1.92879e-12
-2.92474e-12
-3.32721e-12
-1.33743e-12
6.66319e-12
2.6894e-11
6.85459e-11
1.42844e-10
2.59321e-10
4.17249e-10
5.89841e-10
6.993e-10
5.82537e-10
-4.8696e-11
-1.64311e-09
-4.82116e-09
-1.03319e-08
-1.89141e-08
-3.10141e-08
-4.63156e-08
-6.30568e-08
-7.71498e-08
-8.11872e-08
-6.35099e-08
-7.61961e-09
1.07678e-07
3.06934e-07
6.15036e-07
1.05211e-06
1.62615e-06
2.32344e-06
3.09753e-06
3.85793e-06
4.46082e-06
4.70591e-06
4.332e-06
3.02416e-06
4.28805e-07
-3.8208e-06
-1.00681e-05
-1.85873e-05
-2.95287e-05
-4.28605e-05
-5.83106e-05
-7.53135e-05
-9.29715e-05
-0.000110033
-0.000124898
-0.000135648
-0.000140114
-0.000135971
-0.000120856
-9.25177e-05
-4.89659e-05
1.13705e-05
8.95037e-05
0.000185767
0.000299722
0.000430117
0.000574886
0.000731228
0.000895731
0.00106452
0.00123346
0.00139834
0.00155511
0.00170001
0.0018297
0.0019414
0.00203327
0.00210425
0.00215413
0.00218352
0.00219364
0.00218624
0.00216367
0.00212873
0.00208448
0.00203395
0.00197962
0.00192401
0.00186943
0.00181746
0.00176859
0.0017234
0.00168166
0.0016423
0.00160413
0.00156556
0.00152496
0.00148067
0.0014312
0.00137536
0.00131239
0.00124197
0.00116431
0.00108018
0.000990702
0.000897285
0.000801805
0.000706321
0.000612831
0.000523127
0.000438689
0.000360648
0.000289778
0.000226487
0.000170897
0.000122866
8.21996e-05
4.86177e-05
2.24876e-05
1.76857e-06
-4.37607e-15
-4.11401e-15
7.61144e-16
3.70145e-15
4.83697e-15
4.99674e-15
4.73456e-15
4.30066e-15
3.82262e-15
3.35894e-15
2.93213e-15
2.54693e-15
2.20184e-15
1.89428e-15
1.62185e-15
1.38222e-15
1.17301e-15
9.91686e-16
8.35637e-16
7.02179e-16
5.88651e-16
4.92455e-16
4.11109e-16
3.423e-16
2.83941e-16
2.34216e-16
1.91615e-16
1.54928e-16
1.23227e-16
9.58075e-17
7.21368e-17
5.18042e-17
3.44774e-17
1.98729e-17
7.73573e-18
-2.17172e-18
-1.00761e-17
-1.61952e-17
-2.07385e-17
-2.3906e-17
-2.58878e-17
-2.68627e-17
-2.6998e-17
-2.64492e-17
-2.53605e-17
-2.38624e-17
-2.20643e-17
-2.00347e-17
-1.77786e-17
-1.527e-17
-1.2714e-17
-1.13469e-17
-1.49593e-17
-3.11994e-17
-6.82765e-17
-1.15884e-16
-9.10575e-17
2.68244e-16
1.53672e-15
4.59984e-15
1.00546e-14
1.60732e-14
1.33158e-14
-2.43628e-14
-1.52495e-13
-4.6448e-13
-1.07505e-12
-2.03575e-12
-3.11185e-12
-3.33146e-12
-2.38288e-13
1.11052e-11
3.90343e-11
9.52647e-11
1.92297e-10
3.35645e-10
5.07502e-10
6.38504e-10
5.66179e-10
-1.62568e-11
-1.60755e-09
-4.91477e-09
-1.07923e-08
-2.00384e-08
-3.29739e-08
-4.87309e-08
-6.42208e-08
-7.28304e-08
-6.30231e-08
-1.72101e-08
8.85468e-08
2.83254e-07
5.97272e-07
1.05538e-06
1.66606e-06
2.4072e-06
3.20889e-06
3.93554e-06
4.37064e-06
4.20924e-06
3.0635e-06
4.72016e-07
-4.06479e-06
-1.10311e-05
-2.08212e-05
-3.36474e-05
-4.94341e-05
-6.77072e-05
-8.74907e-05
-0.000107222
-0.000124702
-0.000137091
-0.000140965
-0.000132438
-0.000107356
-6.15576e-05
8.80732e-06
0.000106918
0.000234913
0.000393542
0.000581865
0.000797032
0.00103418
0.00128648
0.00154532
0.00180064
0.00204131
0.00225569
0.0024323
0.00256059
0.00263141
0.00263761
0.00257461
0.00244075
0.00223731
0.00196799
0.00163893
0.00125876
0.000837677
0.000387316
-7.95818e-05
-0.000550319
-0.00101315
-0.00145659
-0.00187006
-0.0022424
-0.00256608
-0.00283452
-0.00304137
-0.00318237
-0.0032564
-0.00326226
-0.00320089
-0.00307634
-0.00289313
-0.00265777
-0.0023789
-0.00206584
-0.00172916
-0.00137965
-0.00102829
-0.000685648
-0.000361339
-6.40599e-05
0.0001995
0.000424423
0.000607389
0.000747119
0.000844362
0.000901616
0.000922696
0.000912284
0.000875503
0.000817496
0.000743171
0.000656768
0.000562401
0.00046208
0.000364977
0.000246805
4.99375e-14
3.74008e-14
6.77937e-16
-2.01716e-14
-2.86236e-14
-3.0364e-14
-2.91946e-14
-2.68071e-14
-2.40543e-14
-2.13361e-14
-1.88198e-14
-1.65486e-14
-1.45133e-14
-1.26924e-14
-1.10664e-14
-9.61907e-15
-8.33606e-15
-7.20423e-15
-6.21072e-15
-5.34286e-15
-4.58817e-15
-3.93446e-15
-3.36985e-15
-2.88287e-15
-2.46265e-15
-2.09906e-15
-1.78307e-15
-1.50693e-15
-1.26427e-15
-1.05012e-15
-8.60672e-16
-6.93054e-16
-5.45097e-16
-4.151e-16
-3.01659e-16
-2.03543e-16
-1.1962e-16
-4.8801e-17
9.97471e-18
5.77542e-17
9.55688e-17
1.2443e-16
1.45323e-16
1.59201e-16
1.66983e-16
1.69545e-16
1.67725e-16
1.62328e-16
1.54159e-16
1.44057e-16
1.32869e-16
1.21058e-16
1.07419e-16
8.64592e-17
4.57846e-17
-2.94125e-17
-1.25827e-16
-1.1218e-16
4.3921e-16
2.47053e-15
7.39493e-15
1.59511e-14
2.43017e-14
1.5086e-14
-5.79341e-14
-2.87634e-13
-8.15564e-13
-1.77303e-12
-3.07621e-12
-3.95209e-12
-2.07444e-12
7.68844e-12
3.45537e-11
9.20447e-11
1.94906e-10
3.49004e-10
5.29285e-10
6.41032e-10
4.63018e-10
-4.19844e-10
-2.67016e-09
-7.18885e-09
-1.49633e-08
-2.66661e-08
-4.18886e-08
-5.79259e-08
-6.8129e-08
-6.00231e-08
-1.36703e-08
9.8915e-08
3.12146e-07
6.61687e-07
1.17439e-06
1.85248e-06
2.6521e-06
3.45772e-06
4.05597e-06
4.1144e-06
3.17296e-06
6.57994e-07
-4.08567e-06
-1.17217e-05
-2.2811e-05
-3.76646e-05
-5.61648e-05
-7.7569e-05
-0.000100319
-0.000121879
-0.000138638
-0.000145903
-0.000138023
-0.000108649
-5.11506e-05
4.08149e-05
0.000172624
0.000347925
0.000567863
0.000830338
0.00112937
0.00145472
0.00179173
0.00212156
0.00242169
0.00266678
0.00282996
0.00288442
0.00280506
0.00256997
0.00216155
0.00156832
0.000785797
-0.000183163
-0.00132814
-0.00263109
-0.00406625
-0.00560156
-0.00720472
-0.00883988
-0.0104709
-0.0120632
-0.0135834
-0.0150025
-0.0162995
-0.0174575
-0.018465
-0.0193121
-0.0199981
-0.020525
-0.0208941
-0.0211095
-0.0211774
-0.0211016
-0.0208854
-0.0205333
-0.0200487
-0.0194349
-0.0186971
-0.0178415
-0.0168771
-0.0158148
-0.0146687
-0.0134556
-0.0121947
-0.0109074
-0.00961572
-0.00834169
-0.00710741
-0.00593357
-0.00483796
-0.00383472
-0.00293386
-0.00214124
-0.00145878
-0.00088503
-0.000415864
-4.54715e-05
0.000233231
0.000424839
0.000542756
0.000567501
-4.22427e-13
-2.55258e-13
-3.99921e-14
8.18252e-14
1.36487e-13
1.5279e-13
1.51477e-13
1.4213e-13
1.29733e-13
1.16758e-13
1.04387e-13
9.30573e-14
8.28215e-14
7.35934e-14
6.52742e-14
5.77794e-14
5.10398e-14
4.49966e-14
3.95965e-14
3.47885e-14
3.0523e-14
2.67516e-14
2.3427e-14
2.05029e-14
1.79337e-14
1.56751e-14
1.36845e-14
1.19227e-14
1.03548e-14
8.95146e-15
7.68936e-15
6.55042e-15
5.52112e-15
4.59141e-15
3.75368e-15
3.00198e-15
2.33129e-15
1.73716e-15
1.21538e-15
7.61789e-16
3.72227e-16
4.24744e-17
-2.31728e-16
-4.54665e-16
-6.30616e-16
-7.63845e-16
-8.58586e-16
-9.1903e-16
-9.49311e-16
-9.53455e-16
-9.3529e-16
-8.98406e-16
-8.46495e-16
-7.8487e-16
-7.24068e-16
-6.84647e-16
-6.95123e-16
-7.58399e-16
-7.38222e-16
-1.11311e-16
2.38058e-15
8.8106e-15
2.07421e-14
3.41298e-14
2.70058e-14
-6.22709e-14
-3.60343e-13
-1.05994e-12
-2.32632e-12
-3.97764e-12
-4.75539e-12
-1.0328e-12
1.49319e-11
5.63994e-11
1.41089e-10
2.83565e-10
4.74825e-10
6.41823e-10
5.82327e-10
-1.19582e-10
-2.17095e-09
-6.57935e-09
-1.44886e-08
-2.66911e-08
-4.26513e-08
-5.89182e-08
-6.69551e-08
-5.0709e-08
1.53313e-08
1.66306e-07
4.43611e-07
8.85962e-07
1.51304e-06
2.30087e-06
3.14965e-06
3.84751e-06
4.03626e-06
3.18892e-06
6.0963e-07
-4.53358e-06
-1.31175e-05
-2.59081e-05
-4.33404e-05
-6.52343e-05
-9.04683e-05
-0.000116645
-0.000139797
-0.000154201
-0.000152367
-0.000125266
-6.28628e-05
4.50098e-05
0.000207465
0.00043108
0.000718248
0.00106551
0.00146208
0.00188883
0.00231778
0.00271219
0.00302765
0.00321405
0.00321822
0.00298729
0.00247226
0.00163204
0.000437476
-0.00112481
-0.00305131
-0.00532348
-0.00790435
-0.0107416
-0.0137699
-0.0169146
-0.0200945
-0.0232196
-0.026213
-0.0290021
-0.0315226
-0.0337231
-0.0355655
-0.037028
-0.0381072
-0.0388147
-0.0391743
-0.039223
-0.0390085
-0.0385841
-0.0380055
-0.037328
-0.0366022
-0.0358716
-0.0351691
-0.0345158
-0.0339203
-0.0333787
-0.0328757
-0.0323872
-0.0318822
-0.0313267
-0.0306864
-0.0299299
-0.0290312
-0.027972
-0.0267433
-0.0253453
-0.0237883
-0.022092
-0.0202834
-0.0183951
-0.0164627
-0.014522
-0.0126076
-0.0107501
-0.0089763
-0.00730677
-0.00576141
-0.00434694
-0.00312045
-0.00188843
2.83339e-12
1.4048e-12
3.62479e-13
-2.43012e-13
-5.45761e-13
-6.61673e-13
-6.84878e-13
-6.61719e-13
-6.17569e-13
-5.65828e-13
-5.13648e-13
-4.64409e-13
-4.19208e-13
-3.78005e-13
-3.40474e-13
-3.06276e-13
-2.75128e-13
-2.46802e-13
-2.21101e-13
-1.97845e-13
-1.7686e-13
-1.57977e-13
-1.4103e-13
-1.25856e-13
-1.12292e-13
-1.00178e-13
-8.93511e-14
-7.9652e-14
-7.09259e-14
-6.30327e-14
-5.58509e-14
-4.9282e-14
-4.32496e-14
-3.76967e-14
-3.25815e-14
-2.78741e-14
-2.35521e-14
-1.95983e-14
-1.59981e-14
-1.27386e-14
-9.80713e-15
-7.19077e-15
-4.87627e-15
-2.84979e-15
-1.09701e-15
3.96815e-16
1.64682e-15
2.66847e-15
3.47752e-15
4.09016e-15
4.52306e-15
4.7936e-15
4.91993e-15
4.92069e-15
4.81348e-15
4.61057e-15
4.31161e-15
3.89939e-15
3.36235e-15
2.7986e-15
2.68205e-15
4.31794e-15
1.02166e-14
2.33146e-14
4.24964e-14
5.01417e-14
-1.24967e-14
-2.79288e-13
-9.76904e-13
-2.3511e-12
-4.34795e-12
-5.81521e-12
-2.99658e-12
1.26215e-11
5.61868e-11
1.48401e-10
3.06079e-10
5.15914e-10
6.81695e-10
5.39599e-10
-4.48037e-10
-3.17688e-09
-8.86633e-09
-1.87451e-08
-3.32412e-08
-5.04637e-08
-6.38808e-08
-5.94039e-08
-1.25911e-08
1.12621e-07
3.61534e-07
7.80007e-07
1.39687e-06
2.19563e-06
3.07564e-06
3.80561e-06
3.97638e-06
2.96329e-06
-9.07518e-08
-6.23349e-06
-1.65827e-05
-3.21085e-05
-5.32992e-05
-7.97145e-05
-0.000109454
-0.000138594
-0.0001607
-0.000166517
-0.000144015
-7.89134e-05
4.41804e-05
0.000239946
0.000519865
0.000889197
0.00134366
0.0018662
0.00242421
0.00296795
0.00343092
0.00373234
0.00378026
0.00347804
0.00273203
0.00146033
-0.000398414
-0.00287702
-0.00597342
-0.00964434
-0.0137981
-0.0183156
-0.0230419
-0.0277987
-0.0323953
-0.0366386
-0.0403501
-0.043363
-0.0455516
-0.0468263
-0.0471354
-0.0464673
-0.0448508
-0.0423507
-0.0390619
-0.0351032
-0.0306145
-0.0257504
-0.0206713
-0.0155408
-0.0105237
-0.00577928
-0.00145323
0.0023224
0.00543509
0.00779889
0.00935529
0.0100772
0.00997158
0.00907742
0.00746533
0.00523303
0.00250052
-0.000595902
-0.00391099
-0.00729692
-0.0106118
-0.0137255
-0.0165237
-0.0189133
-0.0208253
-0.0222166
-0.0230692
-0.023388
-0.0231973
-0.0225364
-0.0214557
-0.0200081
-0.0182616
-0.016239
-0.0141584
-0.0114272
-1.58046e-11
-6.66774e-12
-2.22235e-12
4.55649e-13
1.92674e-12
2.58896e-12
2.81822e-12
2.81323e-12
2.68922e-12
2.51033e-12
2.31354e-12
2.11918e-12
1.93654e-12
1.76779e-12
1.61252e-12
1.46971e-12
1.33832e-12
1.21754e-12
1.10668e-12
1.00513e-12
9.1234e-13
8.27737e-13
7.50772e-13
6.80891e-13
6.17551e-13
5.60213e-13
5.08332e-13
4.6135e-13
4.18692e-13
3.7979e-13
3.44111e-13
3.11186e-13
2.80633e-13
2.5215e-13
2.25517e-13
2.00574e-13
1.77212e-13
1.55355e-13
1.3495e-13
1.15957e-13
9.83444e-14
8.20839e-14
6.71463e-14
5.35014e-14
4.1117e-14
2.99589e-14
1.99904e-14
1.11734e-14
3.46804e-15
-3.16714e-15
-8.7756e-15
-1.34037e-14
-1.71015e-14
-1.99239e-14
-2.19306e-14
-2.31883e-14
-2.37728e-14
-2.37766e-14
-2.33169e-14
-2.25308e-14
-2.15109e-14
-2.00956e-14
-1.74162e-14
-1.1267e-14
2.05691e-15
2.55044e-14
5.26433e-14
4.71985e-14
-9.19559e-14
-5.68311e-13
-1.67771e-12
-3.63041e-12
-5.99093e-12
-6.46168e-12
1.13995e-12
2.92745e-11
9.75673e-11
2.27697e-10
4.24192e-10
6.2997e-10
6.468e-10
2.33313e-11
-2.05429e-09
-6.77568e-09
-1.54492e-08
-2.87226e-08
-4.501e-08
-5.79689e-08
-5.32117e-08
-5.03892e-09
1.25194e-07
3.86572e-07
8.28761e-07
1.48131e-06
2.31907e-06
3.21202e-06
3.86142e-06
3.73013e-06
1.98185e-06
-2.53794e-06
-1.12352e-05
-2.55651e-05
-4.6645e-05
-7.46503e-05
-0.000108007
-0.00014245
-0.000170085
-0.000178691
-0.000151542
-6.80669e-05
9.43671e-05
0.000357385
0.000737236
0.00123939
0.00185262
0.00254333
0.00325109
0.003886
0.00432745
0.00443523
0.00405434
0.0030293
0.00122056
-0.00147746
-0.00511861
-0.00968974
-0.0151008
-0.0211822
-0.027667
-0.0342352
-0.0405113
-0.0460908
-0.0505685
-0.0535651
-0.0547538
-0.0538869
-0.0508074
-0.0454598
-0.037889
-0.0282353
-0.0167222
-0.00363719
0.0106888
0.0259008
0.0416345
0.057532
0.0732575
0.0885008
0.102978
0.116431
0.128635
0.139386
0.148506
0.155841
0.161266
0.164688
0.166048
0.165331
0.162566
0.157832
0.151254
0.143006
0.133305
0.122401
0.11057
0.0981037
0.0853021
0.072459
0.0598524
0.0477349
0.0363258
0.0258059
0.0163146
0.00795062
0.00077342
-0.00518664
-0.00993801
-0.0134598
-0.015898
-0.0170083
7.63493e-11
2.91515e-11
1.12803e-11
1.65474e-13
-6.40056e-12
-9.67949e-12
-1.1085e-11
-1.14139e-11
-1.11539e-11
-1.05877e-11
-9.88575e-12
-9.15059e-12
-8.43934e-12
-7.77253e-12
-7.15353e-12
-6.58041e-12
-6.04988e-12
-5.55893e-12
-5.10515e-12
-4.68651e-12
-4.30109e-12
-3.94698e-12
-3.62231e-12
-3.32515e-12
-3.05356e-12
-2.80561e-12
-2.57943e-12
-2.37312e-12
-2.18468e-12
-2.01204e-12
-1.85306e-12
-1.70576e-12
-1.56837e-12
-1.43942e-12
-1.31778e-12
-1.20263e-12
-1.09336e-12
-9.89587e-13
-8.91051e-13
-7.97584e-13
-7.0908e-13
-6.2547e-13
-5.46699e-13
-4.7272e-13
-4.03486e-13
-3.38947e-13
-2.79052e-13
-2.23744e-13
-1.72965e-13
-1.26659e-13
-8.47728e-14
-4.72518e-14
-1.40398e-14
1.49293e-14
3.97369e-14
6.04873e-14
7.73131e-14
9.03785e-14
9.98757e-14
1.06015e-13
1.09011e-13
1.09096e-13
1.06625e-13
1.02378e-13
9.81579e-14
9.75398e-14
1.0586e-13
1.27026e-13
1.5254e-13
1.36833e-13
-4.33146e-14
-6.30155e-13
-1.96938e-12
-4.30393e-12
-7.15171e-12
-8.01057e-12
-3.36595e-13
2.85529e-11
9.7523e-11
2.25188e-10
4.09991e-10
5.88411e-10
5.65551e-10