/*--------------------------------*- C++ -*----------------------------------*\
| =========                 |                                                 |
| \\      /  F ield         | OpenFOAM: The Open Source CFD Toolbox           |
|  \\    /   O peration     | Version:  4.1                                   |
|   \\  /    A nd           | Web:      www.OpenFOAM.org                      |
|    \\/     M anipulation  |                                                 |
\*---------------------------------------------------------------------------*/
FoamFile
{
    version     2.0;
    format      ascii;
    class       volScalarField;
    location    "0.09";
    object      T;
}
// * * * * * * * * * * * * * * * * * * * * * * * * * * * * * * * * * * * * * //

dimensions      [0 0 0 1 0 0 0];

internalField   nonuniform List<scalar> 
12225
(
0.625082
0.501659
0.482429
0.479445
0.478893
0.478746
0.478693
0.478669
0.478656
0.478648
0.478641
0.47863
0.478607
0.478548
0.478401
0.47804
0.47713
0.474862
0.617081
0.498208
0.480748
0.478495
0.478335
0.47841
0.478486
0.478541
0.478578
0.478602
0.478616
0.47862
0.478606
0.478556
0.478419
0.478076
0.477235
0.475187
0.621282
0.500687
0.482151
0.479347
0.478884
0.478769
0.478724
0.4787
0.478685
0.478674
0.478665
0.478653
0.478629
0.478574
0.478442
0.478126
0.477396
0.475775
0.621277
0.500416
0.481761
0.479003
0.478628
0.478587
0.478593
0.478605
0.478616
0.478624
0.478628
0.478626
0.478611
0.478565
0.47845
0.478177
0.477574
0.476333
0.621238
0.500487
0.481847
0.479071
0.47869
0.478643
0.47864
0.478643
0.478646
0.478648
0.478647
0.478642
0.478626
0.478583
0.478482
0.478253
0.477774
0.476856
0.621177
0.50051
0.481888
0.479083
0.478687
0.478637
0.478634
0.478638
0.478641
0.478644
0.478644
0.47864
0.478627
0.478591
0.478507
0.478325
0.477958
0.477299
0.621178
0.500547
0.481941
0.479115
0.478704
0.47865
0.478645
0.478646
0.478649
0.478651
0.478651
0.478647
0.478635
0.478605
0.478538
0.478397
0.478128
0.477666
0.621179
0.500558
0.481969
0.479137
0.478717
0.478659
0.478652
0.478652
0.478654
0.478655
0.478655
0.478652
0.478642
0.478617
0.478563
0.478453
0.47825
0.477913
0.621177
0.500563
0.481988
0.479156
0.478731
0.478669
0.47866
0.478659
0.47866
0.47866
0.47866
0.478657
0.478648
0.478628
0.478584
0.478499
0.478344
0.478094
0.621174
0.500565
0.482002
0.479173
0.478745
0.47868
0.478669
0.478667
0.478667
0.478667
0.478665
0.478663
0.478656
0.478639
0.478606
0.478542
0.478429
0.478252
0.621171
0.500564
0.482012
0.479188
0.478759
0.478692
0.47868
0.478676
0.478675
0.478674
0.478672
0.478669
0.478664
0.478652
0.478627
0.478582
0.478504
0.478384
0.621167
0.500561
0.482017
0.479198
0.478771
0.478704
0.47869
0.478686
0.478684
0.478682
0.47868
0.478677
0.478673
0.478664
0.478647
0.478616
0.478565
0.478489
0.621164
0.500557
0.482019
0.479205
0.47878
0.478714
0.4787
0.478696
0.478692
0.47869
0.478689
0.478686
0.478682
0.478676
0.478664
0.478645
0.478613
0.478568
0.621161
0.500553
0.482019
0.479209
0.478786
0.47872
0.478708
0.478704
0.478701
0.478699
0.478696
0.478694
0.478691
0.478687
0.478679
0.478668
0.47865
0.478624
0.621158
0.500549
0.482017
0.47921
0.478789
0.478725
0.478713
0.47871
0.478708
0.478706
0.478704
0.478702
0.4787
0.478696
0.478691
0.478685
0.478675
0.478662
0.621156
0.500546
0.482015
0.479209
0.47879
0.478728
0.478717
0.478714
0.478712
0.47871
0.478709
0.478708
0.478706
0.478704
0.478701
0.478697
0.478692
0.478686
0.621154
0.500544
0.482013
0.479208
0.47879
0.478728
0.478718
0.478716
0.478714
0.478714
0.478712
0.478711
0.47871
0.478709
0.478707
0.478704
0.478701
0.478698
0.621154
0.500543
0.482012
0.479208
0.47879
0.478728
0.478718
0.478715
0.478714
0.478714
0.478713
0.478713
0.478711
0.478709
0.478708
0.478706
0.478704
0.478704
0.621154
0.500543
0.482012
0.479207
0.478789
0.478728
0.478718
0.478714
0.478712
0.478712
0.47871
0.478709
0.478708
0.478707
0.478706
0.478704
0.478703
0.478703
0.621154
0.500544
0.482012
0.479207
0.478788
0.478725
0.478715
0.478711
0.478709
0.478707
0.478706
0.478705
0.478704
0.478703
0.478702
0.478701
0.4787
0.478701
0.621154
0.500545
0.482014
0.479206
0.478784
0.47872
0.478709
0.478705
0.478703
0.478701
0.478699
0.478698
0.478697
0.478697
0.478696
0.478695
0.478694
0.478695
0.621154
0.500547
0.482015
0.479204
0.47878
0.478714
0.478702
0.478698
0.478696
0.478694
0.478693
0.478692
0.478692
0.478691
0.478691
0.478691
0.478689
0.47869
0.621152
0.500551
0.482014
0.479195
0.478767
0.478701
0.478689
0.478685
0.478684
0.478683
0.478683
0.478682
0.478682
0.478683
0.478682
0.478682
0.478682
0.478683
0.621147
0.500559
0.482014
0.479187
0.478759
0.478694
0.478684
0.478681
0.478681
0.47868
0.47868
0.47868
0.478681
0.478681
0.478681
0.478681
0.478681
0.478682
0.621134
0.500551
0.481983
0.479149
0.478725
0.478665
0.478657
0.478657
0.478658
0.47866
0.478662
0.478664
0.478665
0.478667
0.478669
0.47867
0.478671
0.478673
0.621195
0.500594
0.48198
0.479154
0.478749
0.478696
0.478689
0.478687
0.478686
0.478685
0.478684
0.478682
0.478681
0.47868
0.47868
0.47868
0.478679
0.47868
0.621276
0.500532
0.481808
0.478971
0.478582
0.478548
0.478561
0.47858
0.478597
0.478611
0.478622
0.478631
0.478639
0.478645
0.478651
0.478655
0.478659
0.478661
0.621626
0.501078
0.482445
0.479563
0.479064
0.478923
0.47885
0.478804
0.478771
0.478747
0.47873
0.478716
0.478707
0.4787
0.478695
0.478691
0.47869
0.478684
0.617042
0.497852
0.480426
0.478232
0.478138
0.478261
0.478372
0.478454
0.478512
0.478553
0.478582
0.478604
0.47862
0.478632
0.478642
0.47865
0.478659
0.478657
0.625111
0.502056
0.482622
0.479575
0.479005
0.478839
0.47877
0.478733
0.478711
0.478697
0.478687
0.47868
0.478676
0.478673
0.478671
0.478671
0.478674
0.478662
0.366653
0.366653
0.366631
0.366604
0.366578
0.366549
0.366517
0.366483
0.366445
0.366405
0.366365
0.366324
0.366283
0.36624
0.366198
0.366155
0.366113
0.366073
0.366034
0.365997
0.365963
0.365932
0.365905
0.365883
0.365866
0.365854
0.365848
0.365849
0.365857
0.365873
0.365897
0.365929
0.365971
0.366022
0.366083
0.366154
0.366235
0.366328
0.366431
0.366546
0.366672
0.36681
0.36696
0.367121
0.367295
0.36748
0.367676
0.367884
0.368104
0.368335
0.368578
0.368831
0.369095
0.369369
0.369653
0.369947
0.370249
0.370561
0.370881
0.371208
0.371543
0.371885
0.372233
0.372587
0.372947
0.373311
0.37368
0.374052
0.374428
0.374808
0.37519
0.375573
0.375959
0.376346
0.376734
0.377122
0.377511
0.377899
0.378287
0.378674
0.37906
0.379444
0.379827
0.380208
0.380586
0.380962
0.381336
0.381706
0.382074
0.382438
0.382798
0.383155
0.383507
0.383856
0.3842
0.38454
0.384875
0.385206
0.385532
0.385853
0.386168
0.386479
0.386785
0.387085
0.38738
0.38767
0.387955
0.388234
0.388507
0.388775
0.389038
0.389296
0.389547
0.389794
0.390034
0.39027
0.390499
0.390723
0.390941
0.391154
0.39136
0.391561
0.391755
0.391944
0.392127
0.392304
0.392474
0.392638
0.392796
0.392948
0.393093
0.393231
0.393363
0.393489
0.393607
0.393719
0.393824
0.393922
0.394013
0.394097
0.394174
0.394243
0.394306
0.39436
0.394408
0.394448
0.39448
0.394505
0.394522
0.394531
0.394533
0.394527
0.394513
0.394491
0.394462
0.394425
0.39438
0.394327
0.394266
0.394199
0.394121
0.394036
0.393948
0.393837
0.393717
0.393589
0.393441
0.393287
0.393126
0.392959
0.392786
0.392606
0.39242
0.392227
0.392029
0.391823
0.391623
0.391382
0.391288
0.390445
0.366967
0.366958
0.366951
0.36694
0.366925
0.366908
0.366886
0.366861
0.36683
0.366795
0.366756
0.366715
0.366672
0.366628
0.366583
0.366538
0.366493
0.366449
0.366408
0.366368
0.366331
0.366297
0.366268
0.366242
0.366222
0.366208
0.366199
0.366198
0.366203
0.366217
0.366238
0.366268
0.366307
0.366356
0.366414
0.366483
0.366562
0.366652
0.366753
0.366865
0.366989
0.367125
0.367272
0.367431
0.367601
0.367784
0.367978
0.368184
0.368401
0.36863
0.36887
0.36912
0.369381
0.369653
0.369934
0.370225
0.370525
0.370834
0.371151
0.371475
0.371807
0.372146
0.372492
0.372843
0.3732
0.373561
0.373927
0.374297
0.374671
0.375047
0.375426
0.375808
0.376191
0.376575
0.37696
0.377345
0.377731
0.378117
0.378502
0.378886
0.379269
0.379651
0.380031
0.380409
0.380785
0.381158
0.381529
0.381896
0.38226
0.382621
0.382979
0.383332
0.383682
0.384027
0.384368
0.384704
0.385036
0.385363
0.385686
0.386003
0.386315
0.386622
0.386924
0.387221
0.387512
0.387798
0.388079
0.388354
0.388624
0.388888
0.389147
0.3894
0.389648
0.389891
0.390127
0.390358
0.390584
0.390803
0.391017
0.391225
0.391427
0.391624
0.391814
0.391998
0.392176
0.392348
0.392514
0.392674
0.392827
0.392974
0.393114
0.393248
0.393375
0.393495
0.393609
0.393716
0.393816
0.393909
0.393995
0.394074
0.394146
0.39421
0.394267
0.394317
0.394359
0.394394
0.394421
0.39444
0.394452
0.394456
0.394453
0.394441
0.394422
0.394394
0.394359
0.394316
0.394264
0.394205
0.394137
0.394062
0.393977
0.393885
0.393788
0.393675
0.393558
0.393439
0.393306
0.393166
0.393017
0.392862
0.392699
0.392529
0.392353
0.392169
0.391981
0.391786
0.391596
0.391378
0.391258
0.390675
0.367614
0.36758
0.367562
0.367547
0.367529
0.367507
0.36748
0.367449
0.367412
0.367373
0.36733
0.367285
0.367238
0.36719
0.367141
0.367092
0.367045
0.366998
0.366953
0.366911
0.366871
0.366835
0.366802
0.366775
0.366752
0.366735
0.366724
0.366719
0.366722
0.366733
0.366751
0.366778
0.366815
0.36686
0.366915
0.36698
0.367056
0.367143
0.36724
0.367349
0.367469
0.3676
0.367743
0.367898
0.368065
0.368243
0.368433
0.368634
0.368847
0.369071
0.369307
0.369553
0.369809
0.370076
0.370353
0.370639
0.370935
0.371239
0.371552
0.371872
0.3722
0.372535
0.372876
0.373223
0.373576
0.373934
0.374296
0.374662
0.375032
0.375405
0.375781
0.376159
0.376539
0.37692
0.377303
0.377686
0.378069
0.378452
0.378835
0.379217
0.379599
0.379979
0.380357
0.380734
0.381108
0.38148
0.38185
0.382217
0.38258
0.382941
0.383298
0.383651
0.384001
0.384346
0.384687
0.385024
0.385356
0.385684
0.386006
0.386324
0.386637
0.386944
0.387247
0.387545
0.387837
0.388124
0.388405
0.388681
0.388952
0.389217
0.389477
0.389731
0.38998
0.390223
0.390461
0.390693
0.390919
0.391139
0.391354
0.391563
0.391765
0.391962
0.392153
0.392338
0.392517
0.392689
0.392855
0.393015
0.393169
0.393316
0.393456
0.39359
0.393717
0.393837
0.39395
0.394057
0.394157
0.394249
0.394334
0.394413
0.394484
0.394547
0.394603
0.394652
0.394693
0.394726
0.394752
0.394769
0.39478
0.394782
0.394776
0.394762
0.394741
0.394711
0.394674
0.394628
0.394574
0.394512
0.39444
0.394363
0.394276
0.394181
0.39408
0.393967
0.39385
0.39373
0.393599
0.393461
0.393314
0.39316
0.392999
0.39283
0.392654
0.392472
0.392284
0.392089
0.391897
0.391679
0.391533
0.391093
0.368558
0.368505
0.368476
0.368456
0.368433
0.368403
0.368369
0.368331
0.368289
0.368243
0.368196
0.368146
0.368094
0.368042
0.367989
0.367936
0.367884
0.367833
0.367783
0.367737
0.367693
0.367652
0.367615
0.367583
0.367556
0.367534
0.367519
0.36751
0.367508
0.367514
0.367527
0.367549
0.36758
0.36762
0.36767
0.367729
0.367799
0.36788
0.367971
0.368074
0.368187
0.368312
0.368449
0.368597
0.368757
0.368928
0.369111
0.369306
0.369511
0.369729
0.369957
0.370196
0.370445
0.370705
0.370975
0.371254
0.371542
0.371839
0.372145
0.372459
0.37278
0.373108
0.373443
0.373784
0.37413
0.374482
0.374838
0.375199
0.375563
0.375931
0.376301
0.376674
0.377049
0.377426
0.377804
0.378183
0.378563
0.378942
0.379322
0.379701
0.38008
0.380457
0.380833
0.381208
0.381581
0.381951
0.38232
0.382686
0.383049
0.383409
0.383766
0.384119
0.384469
0.384815
0.385157
0.385495
0.385829
0.386158
0.386482
0.386802
0.387117
0.387427
0.387731
0.388031
0.388326
0.388615
0.388899
0.389178
0.389452
0.38972
0.389982
0.390239
0.390491
0.390737
0.390977
0.391212
0.391441
0.391665
0.391882
0.392094
0.392299
0.392499
0.392693
0.39288
0.393061
0.393236
0.393405
0.393567
0.393723
0.393872
0.394015
0.39415
0.394279
0.394401
0.394516
0.394625
0.394726
0.394819
0.394906
0.394985
0.395057
0.395121
0.395178
0.395227
0.395268
0.395302
0.395327
0.395345
0.395355
0.395357
0.39535
0.395336
0.395314
0.395283
0.395244
0.395197
0.395141
0.395078
0.395006
0.394927
0.394838
0.394742
0.394639
0.394525
0.394406
0.394282
0.394149
0.394008
0.393859
0.393703
0.393539
0.393368
0.393189
0.393004
0.392813
0.392614
0.392416
0.392192
0.392028
0.39166
0.369793
0.369728
0.369693
0.369668
0.369639
0.369604
0.369564
0.369519
0.369471
0.369419
0.369365
0.369309
0.369252
0.369193
0.369134
0.369076
0.369018
0.368961
0.368906
0.368853
0.368803
0.368757
0.368714
0.368676
0.368643
0.368615
0.368594
0.368578
0.36857
0.368569
0.368576
0.368591
0.368615
0.368648
0.36869
0.368742
0.368804
0.368877
0.36896
0.369055
0.36916
0.369276
0.369404
0.369544
0.369695
0.369857
0.370031
0.370216
0.370413
0.37062
0.370839
0.371069
0.371309
0.371559
0.371819
0.372089
0.372368
0.372656
0.372953
0.373257
0.373569
0.373889
0.374215
0.374547
0.374885
0.375229
0.375577
0.37593
0.376287
0.376648
0.377011
0.377378
0.377746
0.378117
0.378489
0.378862
0.379236
0.379611
0.379986
0.380361
0.380736
0.381109
0.381482
0.381854
0.382224
0.382593
0.382959
0.383324
0.383686
0.384045
0.384402
0.384755
0.385105
0.385452
0.385795
0.386134
0.386469
0.386799
0.387126
0.387447
0.387765
0.388077
0.388384
0.388687
0.388984
0.389276
0.389564
0.389846
0.390122
0.390393
0.390659
0.39092
0.391175
0.391424
0.391668
0.391907
0.392139
0.392366
0.392587
0.392802
0.393011
0.393214
0.393411
0.393602
0.393786
0.393964
0.394136
0.394301
0.39446
0.394612
0.394757
0.394895
0.395026
0.39515
0.395268
0.395378
0.39548
0.395576
0.395664
0.395744
0.395817
0.395882
0.39594
0.395989
0.396031
0.396065
0.396091
0.396108
0.396118
0.396119
0.396112
0.396097
0.396074
0.396041
0.396002
0.395954
0.395897
0.395832
0.395758
0.395676
0.395586
0.395487
0.395381
0.395266
0.395145
0.395016
0.39488
0.394736
0.394584
0.394424
0.394257
0.394082
0.3939
0.393711
0.393516
0.393312
0.393107
0.392878
0.392704
0.392365
0.37133
0.37126
0.37122
0.37119
0.371156
0.371115
0.371069
0.371018
0.370963
0.370904
0.370844
0.370781
0.370716
0.370651
0.370585
0.370519
0.370454
0.37039
0.370328
0.370268
0.370211
0.370157
0.370107
0.370061
0.370021
0.369985
0.369956
0.369933
0.369916
0.369907
0.369905
0.369912
0.369927
0.369951
0.369984
0.370027
0.370079
0.370142
0.370216
0.3703
0.370395
0.370501
0.370618
0.370746
0.370886
0.371037
0.3712
0.371374
0.371559
0.371755
0.371962
0.37218
0.372409
0.372647
0.372896
0.373154
0.373422
0.373698
0.373984
0.374277
0.374578
0.374886
0.375202
0.375524
0.375851
0.376185
0.376523
0.376867
0.377214
0.377565
0.37792
0.378278
0.378638
0.379001
0.379366
0.379732
0.380099
0.380467
0.380836
0.381205
0.381574
0.381943
0.382312
0.382679
0.383046
0.383411
0.383775
0.384137
0.384497
0.384855
0.385211
0.385563
0.385913
0.38626
0.386603
0.386943
0.387279
0.387611
0.387938
0.388262
0.388581
0.388896
0.389206
0.389511
0.389811
0.390106
0.390396
0.390682
0.390961
0.391236
0.391506
0.39177
0.392028
0.392281
0.392529
0.392771
0.393007
0.393237
0.393462
0.393681
0.393893
0.3941
0.394301
0.394495
0.394682
0.394864
0.395039
0.395207
0.395368
0.395523
0.395671
0.395812
0.395946
0.396072
0.396192
0.396304
0.396408
0.396505
0.396595
0.396676
0.39675
0.396816
0.396874
0.396924
0.396966
0.397
0.397026
0.397043
0.397052
0.397053
0.397045
0.397028
0.397004
0.396971
0.396929
0.396879
0.39682
0.396753
0.396677
0.396592
0.3965
0.396398
0.396289
0.396172
0.396046
0.395914
0.395774
0.395626
0.395471
0.395307
0.395136
0.394958
0.394772
0.394578
0.394378
0.394169
0.393958
0.393724
0.393544
0.393211
0.373179
0.373109
0.373065
0.373031
0.372992
0.372946
0.372893
0.372835
0.372773
0.372708
0.372639
0.372569
0.372496
0.372423
0.372349
0.372275
0.372201
0.372129
0.372058
0.37199
0.371924
0.371861
0.371803
0.371748
0.371698
0.371654
0.371615
0.371582
0.371556
0.371536
0.371525
0.371521
0.371525
0.371539
0.371561
0.371592
0.371634
0.371685
0.371746
0.371818
0.371901
0.371994
0.372099
0.372215
0.372341
0.37248
0.372629
0.372789
0.372961
0.373143
0.373337
0.373541
0.373756
0.37398
0.374215
0.37446
0.374714
0.374977
0.375249
0.375528
0.375816
0.376112
0.376414
0.376723
0.377039
0.37736
0.377686
0.378018
0.378354
0.378694
0.379038
0.379385
0.379735
0.380088
0.380443
0.380801
0.381159
0.381519
0.38188
0.382242
0.382604
0.382967
0.383329
0.383691
0.384053
0.384414
0.384774
0.385132
0.385489
0.385844
0.386198
0.386549
0.386897
0.387243
0.387586
0.387926
0.388262
0.388595
0.388923
0.389248
0.389569
0.389885
0.390197
0.390505
0.390807
0.391105
0.391398
0.391686
0.391969
0.392247
0.39252
0.392787
0.393049
0.393306
0.393557
0.393802
0.394042
0.394276
0.394505
0.394727
0.394943
0.395153
0.395357
0.395555
0.395746
0.395931
0.396109
0.39628
0.396445
0.396602
0.396753
0.396896
0.397032
0.397161
0.397283
0.397397
0.397503
0.397602
0.397692
0.397775
0.39785
0.397917
0.397975
0.398026
0.398068
0.398101
0.398127
0.398143
0.398151
0.398151
0.398142
0.398124
0.398098
0.398063
0.398019
0.397967
0.397905
0.397836
0.397757
0.397669
0.397574
0.397469
0.397356
0.397235
0.397107
0.39697
0.396826
0.396674
0.396514
0.396346
0.396171
0.395988
0.395798
0.395599
0.395394
0.39518
0.394963
0.394723
0.394536
0.3942
0.375361
0.375291
0.375245
0.375206
0.375161
0.375109
0.375049
0.374985
0.374915
0.374841
0.374765
0.374685
0.374604
0.374521
0.374438
0.374355
0.374272
0.374189
0.374109
0.37403
0.373955
0.373882
0.373813
0.373747
0.373687
0.373631
0.373581
0.373537
0.3735
0.373469
0.373445
0.37343
0.373422
0.373422
0.373432
0.37345
0.373478
0.373516
0.373564
0.373622
0.373691
0.37377
0.37386
0.37396
0.374072
0.374195
0.374329
0.374474
0.37463
0.374797
0.374975
0.375163
0.375362
0.37557
0.375789
0.376018
0.376256
0.376503
0.376759
0.377024
0.377296
0.377576
0.377864
0.378158
0.378458
0.378765
0.379078
0.379395
0.379718
0.380045
0.380376
0.38071
0.381048
0.381389
0.381733
0.382079
0.382427
0.382777
0.383129
0.383481
0.383834
0.384189
0.384543
0.384898
0.385253
0.385608
0.385962
0.386315
0.386668
0.387019
0.387369
0.387717
0.388063
0.388407
0.388748
0.389087
0.389422
0.389754
0.390083
0.390409
0.39073
0.391047
0.391361
0.391669
0.391974
0.392273
0.392568
0.392859
0.393144
0.393425
0.3937
0.39397
0.394235
0.394495
0.394749
0.394998
0.395241
0.395478
0.39571
0.395936
0.396155
0.396369
0.396576
0.396777
0.396971
0.397159
0.39734
0.397514
0.397681
0.397842
0.397995
0.398141
0.398279
0.39841
0.398533
0.398649
0.398757
0.398857
0.398949
0.399032
0.399108
0.399175
0.399234
0.399285
0.399326
0.39936
0.399385
0.3994
0.399408
0.399406
0.399395
0.399376
0.399348
0.39931
0.399264
0.399209
0.399145
0.399072
0.39899
0.398899
0.3988
0.398692
0.398575
0.39845
0.398317
0.398176
0.398027
0.397871
0.397706
0.397534
0.397354
0.397166
0.39697
0.396767
0.396557
0.396337
0.396114
0.395867
0.395675
0.39533
0.377892
0.377823
0.377773
0.377728
0.377677
0.377618
0.377551
0.377478
0.377401
0.377318
0.377232
0.377143
0.377052
0.376959
0.376865
0.376771
0.376677
0.376584
0.376492
0.376402
0.376315
0.37623
0.376149
0.376072
0.375999
0.375931
0.375868
0.375811
0.375761
0.375716
0.375679
0.37565
0.375628
0.375614
0.375609
0.375613
0.375626
0.375649
0.375681
0.375723
0.375776
0.375839
0.375912
0.375996
0.376091
0.376197
0.376314
0.376441
0.376579
0.376729
0.376888
0.377059
0.37724
0.377431
0.377631
0.377842
0.378062
0.378291
0.37853
0.378776
0.379031
0.379293
0.379563
0.37984
0.380124
0.380414
0.38071
0.381012
0.381318
0.381629
0.381945
0.382265
0.382589
0.382916
0.383246
0.383578
0.383914
0.384251
0.38459
0.384932
0.385274
0.385618
0.385963
0.386308
0.386654
0.387001
0.387347
0.387694
0.38804
0.388385
0.38873
0.389073
0.389415
0.389755
0.390093
0.390429
0.390763
0.391093
0.391421
0.391745
0.392066
0.392383
0.392696
0.393005
0.39331
0.39361
0.393907
0.394198
0.394485
0.394767
0.395045
0.395317
0.395584
0.395846
0.396102
0.396354
0.396599
0.396839
0.397073
0.397302
0.397524
0.39774
0.39795
0.398154
0.398351
0.398541
0.398724
0.398901
0.399071
0.399233
0.399389
0.399536
0.399677
0.399809
0.399934
0.400052
0.400161
0.400262
0.400354
0.400438
0.400515
0.400582
0.400641
0.400692
0.400733
0.400766
0.400789
0.400804
0.40081
0.400807
0.400794
0.400773
0.400742
0.400702
0.400653
0.400595
0.400528
0.400451
0.400366
0.400272
0.400168
0.400056
0.399935
0.399806
0.399668
0.399523
0.399369
0.399207
0.399038
0.39886
0.398675
0.398482
0.398281
0.398072
0.397856
0.39763
0.397402
0.397149
0.396949
0.396596
0.380788
0.380719
0.380665
0.380614
0.380556
0.380489
0.380414
0.380333
0.380246
0.380153
0.380057
0.379957
0.379855
0.379751
0.379645
0.379539
0.379433
0.379327
0.379222
0.379119
0.379018
0.37892
0.378826
0.378734
0.378648
0.378565
0.378488
0.378417
0.378351
0.378292
0.37824
0.378194
0.378157
0.378127
0.378106
0.378093
0.37809
0.378095
0.37811
0.378135
0.37817
0.378214
0.37827
0.378335
0.378411
0.378498
0.378596
0.378704
0.378823
0.378952
0.379092
0.379242
0.379403
0.379574
0.379755
0.379945
0.380145
0.380354
0.380572
0.380799
0.381033
0.381276
0.381527
0.381784
0.382048
0.382319
0.382596
0.382879
0.383168
0.383461
0.383759
0.384061
0.384368
0.384678
0.384992
0.385309
0.385629
0.385952
0.386277
0.386604
0.386933
0.387264
0.387597
0.387931
0.388266
0.388602
0.388938
0.389275
0.389613
0.38995
0.390287
0.390623
0.390959
0.391294
0.391627
0.391958
0.392287
0.392614
0.392938
0.39326
0.393578
0.393893
0.394205
0.394512
0.394816
0.395116
0.395412
0.395703
0.39599
0.396273
0.39655
0.396823
0.397091
0.397354
0.397612
0.397865
0.398112
0.398353
0.398589
0.398819
0.399043
0.399261
0.399473
0.399678
0.399877
0.400069
0.400254
0.400433
0.400604
0.400768
0.400925
0.401074
0.401216
0.40135
0.401476
0.401594
0.401704
0.401805
0.401898
0.401983
0.402059
0.402127
0.402185
0.402235
0.402275
0.402307
0.40233
0.402343
0.402347
0.402342
0.402327
0.402303
0.40227
0.402227
0.402175
0.402114
0.402043
0.401963
0.401873
0.401775
0.401667
0.401551
0.401425
0.401291
0.401149
0.400998
0.400839
0.400672
0.400497
0.400314
0.400124
0.399925
0.399719
0.399505
0.399283
0.399051
0.398816
0.398558
0.398351
0.397988
0.384068
0.383998
0.38394
0.383881
0.383815
0.383739
0.383655
0.383564
0.383466
0.383363
0.383255
0.383143
0.383028
0.382911
0.382792
0.382672
0.382552
0.382431
0.382312
0.382195
0.382079
0.381965
0.381855
0.381749
0.381646
0.381548
0.381454
0.381366
0.381284
0.381208
0.381139
0.381077
0.381022
0.380974
0.380935
0.380904
0.380882
0.380869
0.380865
0.38087
0.380885
0.38091
0.380945
0.380991
0.381046
0.381112
0.381189
0.381275
0.381373
0.381481
0.381599
0.381727
0.381866
0.382014
0.382173
0.382341
0.382519
0.382705
0.382901
0.383105
0.383317
0.383538
0.383766
0.384002
0.384244
0.384493
0.384749
0.385011
0.385278
0.385551
0.385829
0.386111
0.386398
0.386689
0.386984
0.387283
0.387584
0.387889
0.388197
0.388508
0.388821
0.389137
0.389454
0.389774
0.390095
0.390417
0.390741
0.391067
0.391392
0.391719
0.392046
0.392373
0.3927
0.393026
0.393352
0.393676
0.393998
0.39432
0.394638
0.394955
0.395268
0.395579
0.395887
0.396191
0.396492
0.396789
0.397082
0.397372
0.397657
0.397938
0.398214
0.398486
0.398754
0.399016
0.399273
0.399526
0.399773
0.400015
0.400251
0.400481
0.400706
0.400924
0.401137
0.401343
0.401542
0.401735
0.401921
0.4021
0.402272
0.402437
0.402595
0.402744
0.402887
0.403021
0.403147
0.403265
0.403375
0.403477
0.40357
0.403654
0.403729
0.403796
0.403854
0.403902
0.403942
0.403972
0.403993
0.404004
0.404006
0.403999
0.403982
0.403955
0.403919
0.403873
0.403817
0.403752
0.403678
0.403594
0.4035
0.403398
0.403285
0.403164
0.403034
0.402895
0.402748
0.402592
0.402427
0.402255
0.402074
0.401886
0.40169
0.401485
0.401273
0.401054
0.400826
0.400588
0.400348
0.400083
0.39987
0.399498
0.387751
0.38768
0.387616
0.387549
0.387473
0.387388
0.387293
0.38719
0.387081
0.386965
0.386843
0.386717
0.386588
0.386456
0.386321
0.386186
0.386049
0.385913
0.385777
0.385642
0.38551
0.385379
0.385252
0.385127
0.385007
0.384891
0.38478
0.384673
0.384573
0.384478
0.38439
0.384309
0.384234
0.384168
0.384109
0.384058
0.384015
0.383982
0.383957
0.383941
0.383935
0.383939
0.383952
0.383975
0.384009
0.384052
0.384105
0.384169
0.384243
0.384327
0.384422
0.384526
0.384641
0.384765
0.384899
0.385042
0.385195
0.385357
0.385528
0.385707
0.385895
0.386091
0.386294
0.386505
0.386724
0.386949
0.38718
0.387418
0.387661
0.387911
0.388165
0.388425
0.388689
0.388958
0.389231
0.389508
0.389789
0.390074
0.390361
0.390652
0.390946
0.391243
0.391543
0.391845
0.392149
0.392455
0.392764
0.393074
0.393386
0.393698
0.394012
0.394327
0.394642
0.394957
0.395272
0.395586
0.395899
0.396212
0.396522
0.396831
0.397137
0.397441
0.397742
0.39804
0.398336
0.398628
0.398916
0.399201
0.399482
0.39976
0.400033
0.400302
0.400566
0.400826
0.401082
0.401332
0.401577
0.401817
0.402052
0.402281
0.402505
0.402722
0.402934
0.403139
0.403338
0.40353
0.403716
0.403894
0.404066
0.40423
0.404387
0.404536
0.404678
0.404812
0.404937
0.405055
0.405164
0.405265
0.405357
0.40544
0.405514
0.405579
0.405636
0.405683
0.40572
0.405748
0.405767
0.405776
0.405776
0.405765
0.405745
0.405716
0.405676
0.405627
0.405568
0.405499
0.40542
0.405332
0.405234
0.405127
0.40501
0.404884
0.404749
0.404605
0.404452
0.40429
0.404121
0.403943
0.403756
0.403562
0.40336
0.40315
0.402933
0.402707
0.402474
0.402231
0.401984
0.401714
0.401494
0.401115
0.391859
0.391786
0.391715
0.391639
0.391552
0.391455
0.391348
0.391231
0.391107
0.390976
0.390839
0.390697
0.390551
0.390401
0.390249
0.390095
0.38994
0.389785
0.38963
0.389477
0.389325
0.389175
0.389028
0.388884
0.388744
0.388608
0.388476
0.38835
0.388229
0.388114
0.388005
0.387903
0.387808
0.38772
0.387639
0.387567
0.387503
0.387447
0.3874
0.387361
0.387332
0.387312
0.387302
0.387302
0.387311
0.38733
0.387358
0.387397
0.387446
0.387504
0.387573
0.387651
0.38774
0.387837
0.387945
0.388061
0.388187
0.388322
0.388466
0.388618
0.388778
0.388946
0.389123
0.389306
0.389497
0.389695
0.3899
0.39011
0.390327
0.39055
0.390779
0.391012
0.391251
0.391494
0.391743
0.391995
0.392252
0.392512
0.392777
0.393045
0.393316
0.393591
0.39387
0.394151
0.394435
0.394722
0.395011
0.395303
0.395597
0.395892
0.39619
0.396489
0.396789
0.397089
0.39739
0.397691
0.397992
0.398292
0.398591
0.398888
0.399184
0.399478
0.39977
0.400059
0.400346
0.40063
0.400911
0.401189
0.401464
0.401735
0.402002
0.402265
0.402525
0.40278
0.403031
0.403277
0.403518
0.403755
0.403986
0.404212
0.404432
0.404647
0.404856
0.405058
0.405255
0.405445
0.405628
0.405805
0.405975
0.406137
0.406292
0.40644
0.40658
0.406712
0.406836
0.406951
0.407059
0.407157
0.407247
0.407329
0.407401
0.407464
0.407518
0.407563
0.407598
0.407624
0.40764
0.407646
0.407642
0.407629
0.407606
0.407572
0.407529
0.407476
0.407413
0.40734
0.407257
0.407165
0.407062
0.40695
0.406828
0.406697
0.406557
0.406408
0.40625
0.406083
0.405907
0.405723
0.405532
0.405332
0.405124
0.404908
0.404685
0.404454
0.404215
0.403966
0.403714
0.403439
0.403212
0.402827
0.396417
0.39634
0.39626
0.396173
0.396073
0.395962
0.39584
0.395707
0.395566
0.395417
0.395261
0.395099
0.394933
0.394763
0.39459
0.394415
0.394238
0.394062
0.393885
0.39371
0.393536
0.393364
0.393195
0.393029
0.392867
0.392709
0.392555
0.392407
0.392264
0.392126
0.391995
0.39187
0.391752
0.391641
0.391538
0.391442
0.391354
0.391274
0.391203
0.39114
0.391086
0.391042
0.391006
0.39098
0.390963
0.390956
0.390958
0.39097
0.390991
0.391022
0.391063
0.391113
0.391173
0.391242
0.39132
0.391407
0.391504
0.391609
0.391723
0.391845
0.391975
0.392113
0.392259
0.392413
0.392574
0.392741
0.392916
0.393097
0.393284
0.393477
0.393676
0.393881
0.39409
0.394305
0.394525
0.394749
0.394978
0.395212
0.395449
0.395691
0.395937
0.396186
0.396439
0.396696
0.396956
0.39722
0.397486
0.397756
0.398028
0.398303
0.398581
0.39886
0.399141
0.399423
0.399706
0.399991
0.400275
0.400559
0.400843
0.401126
0.401408
0.401689
0.401968
0.402245
0.40252
0.402793
0.403064
0.403331
0.403596
0.403858
0.404117
0.404372
0.404624
0.404871
0.405115
0.405354
0.405589
0.405819
0.406045
0.406265
0.40648
0.40669
0.406894
0.407093
0.407285
0.407471
0.40765
0.407823
0.407989
0.408148
0.4083
0.408444
0.408581
0.40871
0.408831
0.408943
0.409048
0.409144
0.409231
0.409309
0.409378
0.409438
0.409489
0.409531
0.409563
0.409585
0.409598
0.409601
0.409593
0.409576
0.409549
0.409512
0.409465
0.409408
0.409341
0.409263
0.409176
0.409079
0.408972
0.408855
0.408728
0.408592
0.408446
0.408292
0.408128
0.407955
0.407774
0.407585
0.407387
0.407182
0.406968
0.406747
0.406518
0.406281
0.406037
0.405783
0.405526
0.405245
0.405013
0.404623
0.40145
0.401368
0.401277
0.401176
0.401061
0.400932
0.400791
0.400639
0.400476
0.400305
0.400126
0.39994
0.39975
0.399555
0.399358
0.399158
0.398956
0.398755
0.398553
0.398353
0.398154
0.397958
0.397764
0.397573
0.397387
0.397204
0.397026
0.396853
0.396686
0.396524
0.396368
0.396219
0.396076
0.39594
0.395812
0.395691
0.395578
0.395472
0.395375
0.395286
0.395206
0.395135
0.395072
0.395018
0.394973
0.394938
0.394911
0.394894
0.394886
0.394888
0.394898
0.394918
0.394947
0.394985
0.395031
0.395087
0.395151
0.395224
0.395305
0.395395
0.395492
0.395598
0.39571
0.395831
0.395958
0.396093
0.396234
0.396382
0.396536
0.396696
0.396862
0.397034
0.397211
0.397394
0.397582
0.397774
0.397972
0.398175
0.398382
0.398593
0.398809
0.399029
0.399254
0.399482
0.399714
0.399951
0.400191
0.400435
0.400682
0.400932
0.401185
0.40144
0.401698
0.401959
0.402221
0.402484
0.402748
0.403013
0.403277
0.403542
0.403806
0.40407
0.404333
0.404594
0.404854
0.405113
0.405369
0.405624
0.405876
0.406125
0.406372
0.406616
0.406856
0.407094
0.407327
0.407557
0.407783
0.408004
0.408222
0.408434
0.408641
0.408844
0.409041
0.409232
0.409418
0.409598
0.409771
0.409939
0.410099
0.410253
0.4104
0.410539
0.410671
0.410795
0.410911
0.41102
0.41112
0.411211
0.411294
0.411369
0.411434
0.41149
0.411537
0.411574
0.411602
0.411621
0.411629
0.411628
0.411617
0.411596
0.411564
0.411523
0.411472
0.41141
0.411338
0.411256
0.411164
0.411062
0.41095
0.410828
0.410696
0.410555
0.410404
0.410244
0.410075
0.409897
0.40971
0.409515
0.409312
0.4091
0.408881
0.408654
0.40842
0.408178
0.407928
0.407669
0.407407
0.407122
0.406885
0.406491
0.406989
0.406898
0.406795
0.406677
0.406542
0.406391
0.406226
0.406047
0.405858
0.405658
0.405451
0.405236
0.405016
0.404792
0.404564
0.404335
0.404104
0.403873
0.403643
0.403414
0.403187
0.402963
0.402741
0.402523
0.402309
0.4021
0.401895
0.401695
0.401501
0.401313
0.401131
0.400955
0.400785
0.400623
0.400468