/*--------------------------------*- C++ -*----------------------------------*\
| =========                 |                                                 |
| \\      /  F ield         | OpenFOAM: The Open Source CFD Toolbox           |
|  \\    /   O peration     | Version:  4.1                                   |
|   \\  /    A nd           | Web:      www.OpenFOAM.org                      |
|    \\/     M anipulation  |                                                 |
\*---------------------------------------------------------------------------*/
FoamFile
{
    version     2.0;
    format      ascii;
    class       volScalarField;
    location    "0.01";
    object      T;
}
// * * * * * * * * * * * * * * * * * * * * * * * * * * * * * * * * * * * * * //

dimensions      [0 0 0 1 0 0 0];

internalField   nonuniform List<scalar> 
12225
(
0.625082
0.501659
0.482429
0.479445
0.478893
0.478746
0.478693
0.478669
0.478654
0.478641
0.478621
0.478577
0.478465
0.478181
0.477471
0.475717
0.47134
0.460021
0.617081
0.498208
0.480748
0.478495
0.478335
0.478409
0.478486
0.47854
0.478576
0.478595
0.478597
0.478568
0.478469
0.4782
0.477521
0.475854
0.471799
0.461987
0.621282
0.500687
0.482151
0.479347
0.478884
0.478769
0.478724
0.478699
0.478682
0.478668
0.478647
0.478603
0.478498
0.478237
0.477601
0.476078
0.472543
0.464739
0.621277
0.500416
0.481761
0.479003
0.478628
0.478587
0.478593
0.478605
0.478614
0.478618
0.478611
0.478579
0.478488
0.478254
0.477685
0.47636
0.473429
0.467479
0.621238
0.500487
0.481847
0.479071
0.47869
0.478643
0.47864
0.478642
0.478644
0.478642
0.478631
0.478599
0.478514
0.478304
0.477809
0.476699
0.474372
0.469977
0.621177
0.50051
0.481888
0.479083
0.478687
0.478637
0.478634
0.478637
0.478639
0.478639
0.47863
0.478602
0.478528
0.478348
0.477935
0.477044
0.475268
0.472106
0.621178
0.500547
0.481941
0.479115
0.478704
0.47865
0.478644
0.478646
0.478647
0.478646
0.478638
0.478613
0.47855
0.478401
0.478069
0.477382
0.476076
0.473855
0.621179
0.500558
0.481969
0.479137
0.478717
0.478659
0.478652
0.478652
0.478652
0.478651
0.478643
0.478622
0.478569
0.478445
0.478178
0.477643
0.476657
0.47503
0.621177
0.500563
0.481988
0.479156
0.478731
0.478669
0.47866
0.478659
0.478658
0.478657
0.47865
0.478631
0.478586
0.478484
0.47827
0.477851
0.477102
0.475894
0.621174
0.500565
0.482002
0.479173
0.478745
0.47868
0.478669
0.478667
0.478666
0.478663
0.478657
0.478641
0.478605
0.478524
0.478359
0.478047
0.477503
0.476642
0.621171
0.500564
0.482012
0.479188
0.478759
0.478692
0.47868
0.478676
0.478674
0.478671
0.478665
0.478652
0.478624
0.478564
0.478444
0.478222
0.477846
0.477261
0.621167
0.500561
0.482017
0.479198
0.478771
0.478704
0.47869
0.478686
0.478683
0.47868
0.478675
0.478665
0.478644
0.478601
0.478518
0.47837
0.478124
0.477748
0.621164
0.500557
0.482019
0.479205
0.47878
0.478714
0.4787
0.478695
0.478692
0.478689
0.478685
0.478676
0.478662
0.478633
0.47858
0.478487
0.478336
0.47811
0.621161
0.500553
0.482019
0.479209
0.478786
0.47872
0.478708
0.478704
0.478701
0.478697
0.478694
0.478688
0.478678
0.47866
0.478628
0.478574
0.478489
0.478361
0.621158
0.500549
0.482017
0.47921
0.478789
0.478725
0.478713
0.47871
0.478708
0.478705
0.478702
0.478698
0.478692
0.478681
0.478663
0.478634
0.478589
0.478524
0.621156
0.500546
0.482015
0.479209
0.47879
0.478728
0.478717
0.478714
0.478712
0.47871
0.478708
0.478706
0.478702
0.478696
0.478687
0.478672
0.47865
0.47862
0.621154
0.500544
0.482013
0.479208
0.47879
0.478728
0.478718
0.478716
0.478714
0.478713
0.478712
0.47871
0.478708
0.478705
0.478701
0.478694
0.478683
0.47867
0.621154
0.500543
0.482012
0.479208
0.47879
0.478728
0.478718
0.478715
0.478714
0.478714
0.478713
0.478712
0.47871
0.478708
0.478705
0.478701
0.478697
0.478692
0.621154
0.500543
0.482012
0.479207
0.478789
0.478728
0.478718
0.478714
0.478712
0.478712
0.47871
0.478709
0.478708
0.478706
0.478705
0.478703
0.4787
0.478698
0.621154
0.500544
0.482012
0.479207
0.478788
0.478725
0.478715
0.478711
0.478709
0.478707
0.478706
0.478705
0.478704
0.478703
0.478702
0.4787
0.478699
0.478698
0.621154
0.500545
0.482014
0.479206
0.478784
0.47872
0.478709
0.478705
0.478703
0.478701
0.478699
0.478698
0.478697
0.478696
0.478696
0.478695
0.478693
0.478693
0.621154
0.500547
0.482015
0.479204
0.47878
0.478714
0.478702
0.478698
0.478696
0.478694
0.478693
0.478692
0.478692
0.478691
0.478691
0.47869
0.478689
0.478689
0.621152
0.500551
0.482014
0.479195
0.478767
0.478701
0.478689
0.478685
0.478684
0.478683
0.478683
0.478682
0.478682
0.478683
0.478682
0.478682
0.478682
0.478683
0.621147
0.500559
0.482014
0.479187
0.478759
0.478694
0.478684
0.478681
0.478681
0.47868
0.47868
0.47868
0.478681
0.478681
0.478681
0.478681
0.478681
0.478682
0.621134
0.500551
0.481983
0.479149
0.478725
0.478665
0.478657
0.478657
0.478658
0.47866
0.478662
0.478663
0.478665
0.478667
0.478669
0.47867
0.478671
0.478672
0.621195
0.500594
0.48198
0.479154
0.478749
0.478696
0.478689
0.478687
0.478686
0.478685
0.478684
0.478682
0.478681
0.47868
0.47868
0.47868
0.478679
0.47868
0.621276
0.500532
0.481808
0.478971
0.478582
0.478548
0.478561
0.47858
0.478597
0.478611
0.478622
0.478631
0.478639
0.478645
0.478651
0.478655
0.478659
0.478661
0.621626
0.501078
0.482445
0.479563
0.479064
0.478923
0.47885
0.478804
0.478771
0.478747
0.47873
0.478716
0.478707
0.4787
0.478695
0.478691
0.47869
0.478684
0.617042
0.497852
0.480426
0.478232
0.478138
0.478261
0.478372
0.478454
0.478512
0.478553
0.478582
0.478604
0.47862
0.478632
0.478642
0.47865
0.478659
0.478657
0.625111
0.502056
0.482622
0.479575
0.479005
0.478839
0.47877
0.478733
0.478711
0.478697
0.478687
0.47868
0.478676
0.478673
0.478671
0.478671
0.478674
0.478662
0.0140118
0.0139952
0.0139599
0.013907
0.0138371
0.0137502
0.0136469
0.0135275
0.0133926
0.0132428
0.013079
0.0129018
0.0127118
0.01251
0.012297
0.0120738
0.0118412
0.0116
0.0113512
0.0110957
0.0108342
0.0105676
0.0102968
0.0100227
0.00974592
0.00946739
0.00918781
0.0089079
0.00862835
0.0083498
0.00807287
0.00779813
0.00752609
0.00725726
0.00699208
0.00673095
0.00647424
0.00622227
0.00597532
0.00573364
0.00549744
0.0052669
0.00504216
0.00482332
0.00461049
0.0044037
0.004203
0.00400839
0.00381988
0.00363743
0.003461
0.00329054
0.00312599
0.00296727
0.00281428
0.00266695
0.00252516
0.00238883
0.00225783
0.00213206
0.0020114
0.00189574
0.00178496
0.00167894
0.00157757
0.00148073
0.0013883
0.00130016
0.00121619
0.00113629
0.00106034
0.000988208
0.000919794
0.000854981
0.000793654
0.000735701
0.000681007
0.000629461
0.000580949
0.000535359
0.000492579
0.000452498
0.000415003
0.000379985
0.000347334
0.000316939
0.000288694
0.00026249
0.000238224
0.000215792
0.000195092
0.000176027
0.000158498
0.000142415
0.000127685
0.000114222
0.000101944
9.07682e-05
8.06195e-05
7.14241e-05
6.31124e-05
5.56178e-05
4.88772e-05
4.28309e-05
3.74224e-05
3.25983e-05
2.83085e-05
2.45054e-05
2.11446e-05
1.81842e-05
1.55854e-05
1.33117e-05
1.13294e-05
9.60747e-06
8.11713e-06
6.83207e-06
5.72829e-06
4.78392e-06
3.97919e-06
3.29624e-06
2.71907e-06
2.23337e-06
1.82643e-06
1.487e-06
1.20515e-06
9.72196e-07
7.80573e-07
6.23704e-07
4.95917e-07
3.92341e-07
3.08818e-07
2.41815e-07
1.8835e-07
1.45918e-07
1.12426e-07
8.61396e-08
6.56256e-08
4.97092e-08
3.74327e-08
2.80204e-08
2.08481e-08
1.54164e-08
1.13289e-08
8.27245e-09
6.00185e-09
4.32614e-09
3.09771e-09
2.20327e-09
1.55647e-09
1.092e-09
7.60818e-10
5.26348e-10
3.6155e-10
2.46566e-10
1.66927e-10
1.12184e-10
7.48346e-11
4.95473e-11
3.25577e-11
2.1231e-11
1.37392e-11
8.82202e-12
5.62123e-12
3.55377e-12
2.22867e-12
1.38684e-12
8.56178e-13
5.2435e-13
3.18544e-13
1.91949e-13
1.14724e-13
6.80066e-14
3.99814e-14
2.33102e-14
1.34764e-14
7.72474e-15
4.38935e-15
2.47143e-15
1.3795e-15
7.6395e-16
0.0147244
0.0147048
0.0146665
0.0146099
0.0145352
0.014443
0.0143336
0.0142077
0.0140658
0.0139087
0.013737
0.0135516
0.0133533
0.0131428
0.0129211
0.0126889
0.0124472
0.0121968
0.0119387
0.0116736
0.0114026
0.0111264
0.010846
0.010562
0.0102755
0.00998706
0.00969755
0.00940766
0.0091181
0.00882951
0.00854251
0.00825768
0.00797555
0.00769661
0.00742133
0.00715011
0.00688332
0.0066213
0.00636432
0.00611266
0.00586652
0.00562608
0.0053915
0.00516288
0.00494034
0.00472392
0.00451366
0.00430958
0.00411169
0.00391995
0.00373434
0.00355481
0.00338129
0.00321371
0.003052
0.00289606
0.00274579
0.00260111
0.0024619
0.00232805
0.00219946
0.00207601
0.00195759
0.00184409
0.00173539
0.00163137
0.00153193
0.00143694
0.0013463
0.0012599
0.00117761
0.00109933
0.00102494
0.000954331
0.000887395
0.000824018
0.00076409
0.000707497
0.000654128
0.000603873
0.000556618
0.000512251
0.000470662
0.000431737
0.000395365
0.000361435
0.000329836
0.000300457
0.000273191
0.00024793
0.000224568
0.000203002
0.000183131
0.000164857
0.000148083
0.000132717
0.000118671
0.000105857
9.41946e-05
8.36036e-05
7.40086e-05
6.53374e-05
5.75209e-05
5.0494e-05
4.41944e-05
3.85634e-05
3.35452e-05
2.9087e-05
2.51391e-05
2.16544e-05
1.85891e-05
1.5902e-05
1.35547e-05
1.15118e-05
9.74031e-06
8.21004e-06
6.89327e-06
5.7647e-06
4.80135e-06
3.98242e-06
3.28921e-06
2.70494e-06
2.21467e-06
1.80511e-06
1.46455e-06
1.18269e-06
9.50523e-07
7.60222e-07
6.05011e-07
4.79061e-07
3.77383e-07
2.9573e-07
2.30509e-07
1.78698e-07
1.37768e-07
1.05616e-07
8.05058e-08
6.10093e-08
4.59616e-08
3.44176e-08
2.56161e-08
1.89475e-08
1.39269e-08
1.01715e-08
7.38063e-09
5.32045e-09
3.80986e-09
2.70979e-09
1.91421e-09
1.34288e-09
9.35489e-10
6.47078e-10
4.44389e-10
3.02984e-10
2.05064e-10
1.3777e-10
9.18695e-11
6.08022e-11
3.99365e-11
2.60306e-11
1.68373e-11
1.08054e-11
6.88141e-12
4.34818e-12
2.72565e-12
1.69506e-12
1.04574e-12
6.39968e-13
3.88481e-13
2.33905e-13
1.39684e-13
8.27327e-14
4.85966e-14
2.83078e-14
1.63509e-14
9.36373e-15
5.3157e-15
2.99034e-15
1.66732e-15
9.21716e-16
0.0161677
0.0161433
0.0160981
0.0160329
0.0159483
0.0158446
0.0157228
0.0155834
0.0154273
0.0152552
0.015068
0.0148666
0.0146517
0.0144243
0.0141853
0.0139354
0.0136758
0.0134072
0.0131305
0.0128468
0.0125568
0.0122615
0.0119617
0.0116584
0.0113522
0.0110441
0.0107347
0.0104248
0.0101152
0.00980651
0.00949931
0.00919424
0.00889184
0.00859262
0.00829704
0.00800554
0.0077185
0.00743625
0.00715912
0.00688736
0.0066212
0.00636084
0.00610645
0.00585815
0.00561604
0.00538019
0.00515067
0.0049275
0.00471068
0.00450021
0.00429606
0.00409819
0.00390655
0.00372107
0.00354169
0.00336832
0.00320088
0.00303926
0.00288338
0.00273314
0.00258842
0.00244914
0.00231517
0.00218641
0.00206276
0.00194411
0.00183034
0.00172136
0.00161706
0.00151732
0.00142205
0.00133113
0.00124446
0.00116194
0.00108345
0.0010089
0.000938162
0.000871143
0.00080773
0.000747813
0.00069128
0.000638021
0.000587922
0.000540869
0.000496749
0.000455446
0.000416844
0.000380829
0.000347284
0.000316095
0.000287149
0.000260332
0.000235533
0.000212645
0.000191561
0.000172178
0.000154395
0.000138115
0.000123244
0.000109691
9.73701e-05
8.61958e-05
7.60879e-05
6.69696e-05
5.87676e-05
5.14117e-05
4.48348e-05
3.89731e-05
3.37658e-05
2.91553e-05
2.50872e-05
2.15104e-05
1.83768e-05
1.56417e-05
1.32633e-05
1.12031e-05
9.42566e-06
7.89825e-06
6.59113e-06
5.47724e-06
4.53209e-06
3.73362e-06
3.0621e-06
2.49992e-06
2.03147e-06
1.64297e-06
1.32236e-06
1.05907e-06
8.43944e-07
6.69082e-07
5.2769e-07
4.13971e-07
3.23006e-07
2.50645e-07
1.93407e-07
1.48393e-07
1.13197e-07
8.58418e-08
6.47086e-08
4.84822e-08
3.6101e-08
2.67136e-08
1.96418e-08
1.43491e-08
1.0414e-08
7.50814e-09
5.3768e-09
3.82431e-09
2.70135e-09
1.89486e-09
1.31978e-09
9.12676e-10
6.26609e-10
4.27075e-10
2.88932e-10
1.94029e-10
1.29319e-10
8.554e-11
5.61517e-11
3.65751e-11
2.36425e-11
1.51634e-11
9.6492e-12
6.09172e-12
3.81512e-12
2.3702e-12
1.46067e-12
8.92885e-13
5.4137e-13
3.25562e-13
1.94176e-13
1.14859e-13
6.73779e-14
3.91949e-14
2.26081e-14
1.2929e-14
7.32933e-15
4.11744e-15
2.29237e-15
1.26459e-15
0.0183767
0.0183455
0.0182911
0.0182144
0.0181159
0.0179963
0.0178568
0.0176982
0.0175216
0.0173279
0.0171181
0.0168931
0.0166539
0.0164015
0.0161367
0.0158605
0.015574
0.0152781
0.0149737
0.0146618
0.0143433
0.0140191
0.0136902
0.0133573
0.0130215
0.0126834
0.0123439
0.0120037
0.0116637
0.0113244
0.0109865
0.0106507
0.0103175
0.0099874
0.00966095
0.0093386
0.00902073
0.00870771
0.00839988
0.00809751
0.00780086
0.00751014
0.00722554
0.0069472
0.00667523
0.00640974
0.00615079
0.00589842
0.00565265
0.0054135
0.00518095
0.00495497
0.00473552
0.00452255
0.00431601
0.00411581
0.00392189
0.00373417
0.00355256
0.00337696
0.00320729
0.00304345
0.00288535
0.0027329
0.00258598
0.00244452
0.00230841
0.00217756
0.00205187
0.00193124
0.00181558
0.0017048
0.0015988
0.00149748
0.00140074
0.00130849
0.00122063
0.00113706
0.00105766
0.000982349
0.000911006
0.000843525
0.000779792
0.000719695
0.000663116
0.000609936
0.000560034
0.000513288
0.000469573
0.000428765
0.000390738
0.000355367
0.000322528
0.000292097
0.000263952
0.000237975
0.000214048
0.000192057
0.00017189
0.000153441
0.000136602
0.000121273
0.000107355
9.47525e-05
8.33756e-05
7.3136e-05
6.39489e-05
5.57327e-05
4.84093e-05
4.19039e-05
3.61454e-05
3.10663e-05
2.66028e-05
2.26952e-05
1.92873e-05
1.6327e-05
1.37656e-05
1.15587e-05
9.66505e-06
8.04721e-06
6.67105e-06
5.50568e-06
4.52331e-06
3.69905e-06
3.01073e-06
2.43872e-06
1.96571e-06
1.57653e-06
1.25797e-06
9.98587e-07
7.88502e-07
6.19272e-07
4.83703e-07
3.75709e-07
2.90175e-07
2.22824e-07
1.70105e-07
1.29087e-07
9.7368e-08
7.29922e-08
5.43778e-08
4.02545e-08
2.96084e-08
2.1636e-08
1.5706e-08
1.13251e-08
8.11086e-09
5.76903e-09
4.07483e-09
2.85798e-09
1.99027e-09
1.37602e-09
9.44457e-10
6.43495e-10
4.35168e-10
2.92105e-10
1.94587e-10
1.28643e-10
8.44001e-11
5.49448e-11
3.54912e-11
2.2745e-11
1.44611e-11
9.12096e-12
5.70659e-12
3.54154e-12
2.18008e-12
1.33108e-12
8.06073e-13
4.84134e-13
2.8838e-13
1.70355e-13
9.97961e-14
5.7972e-14
3.33914e-14
1.90683e-14
1.07943e-14
6.05562e-15
3.36687e-15
1.85436e-15
0.0214167
0.021377
0.0213109
0.0212195
0.0211035
0.0209637
0.0208017
0.0206185
0.0204154
0.0201936
0.0199541
0.0196981
0.0194267
0.019141
0.0188419
0.0185307
0.0182083
0.0178757
0.017534
0.0171842
0.0168273
0.0164642
0.0160959
0.0157233
0.0153473
0.0149687
0.0145885
0.0142073
0.0138261
0.0134454
0.0130659
0.0126884
0.0123135
0.0119416
0.0115733
0.0112091
0.0108494
0.0104946
0.0101451
0.00980115
0.00946306
0.00913105
0.00880534
0.0084861
0.00817345
0.00786753
0.00756841
0.00727616
0.00699081
0.0067124
0.00644093
0.00617638
0.00591874
0.00566796
0.00542401
0.00518682
0.00495634
0.00473251
0.00451524
0.00430447
0.00410012
0.0039021
0.00371035
0.00352478
0.00334531
0.00317187
0.00300436
0.00284272
0.00268686
0.0025367
0.00239218
0.0022532
0.00211969
0.00199157
0.00186877
0.00175118
0.00163874
0.00153135
0.00142892
0.00133136
0.00123856
0.00115043
0.00106686
0.000987734
0.000912937
0.000842349
0.000775844
0.000713293
0.000654563
0.000599519
0.000548021
0.00049993
0.000455104
0.000413401
0.00037468
0.000338801
0.000305626
0.000275017
0.000246841
0.000220967
0.000197263
0.000175603
0.000155866
0.000137933
0.000121686
0.000107013
9.38051e-05
8.1954e-05
7.13567e-05
6.19136e-05
5.3529e-05
4.61114e-05
3.95738e-05
3.38339e-05
2.88141e-05
2.44415e-05
2.06484e-05
1.73716e-05
1.45531e-05
1.21391e-05
1.0081e-05
8.3341e-06
6.85832e-06
5.61743e-06
4.57909e-06
3.7145e-06
2.99821e-06
2.4078e-06
1.9237e-06
1.52887e-06
1.20859e-06
9.50207e-07
7.42931e-07
5.77598e-07
4.46487e-07
3.43128e-07
2.62138e-07
1.99061e-07
1.50238e-07
1.12687e-07
8.3989e-08
6.22003e-08
4.57659e-08
3.34524e-08
2.42888e-08
1.75166e-08
1.25464e-08
8.92428e-09
6.30328e-09
4.42063e-09
3.0781e-09
2.12767e-09
1.46003e-09
9.94491e-10
6.7228e-10
4.51102e-10
3.00393e-10
1.98502e-10
1.3016e-10
8.46809e-11
5.46598e-11
3.50023e-11
2.22354e-11
1.40118e-11
8.75826e-12
5.43001e-12
3.33909e-12
2.03651e-12
1.23187e-12
7.39003e-13
4.39663e-13
2.594e-13
1.51767e-13
8.80475e-14
5.06479e-14
2.88845e-14
1.63297e-14
9.14973e-15
5.0813e-15
2.79531e-15
0.0253698
0.02532
0.02524
0.025131
0.0249939
0.0248299
0.0246407
0.0244276
0.0241921
0.0239358
0.0236598
0.0233654
0.0230541
0.0227269
0.0223851
0.0220299
0.0216624
0.0212838
0.0208951
0.0204975
0.0200921
0.0196798
0.0192617
0.0188387
0.0184119
0.0179821
0.0175502
0.017117
0.0166835
0.0162502
0.015818
0.0153876
0.0149596
0.0145346
0.0141131
0.0136956
0.0132827
0.0128748
0.0124722
0.0120752
0.0116843
0.0112996
0.0109213
0.0105498
0.0101851
0.00982732
0.00947667
0.0091332
0.00879695
0.00846798
0.00814632
0.00783196
0.00752491
0.00722515
0.00693265
0.00664737
0.00636928
0.00609832
0.00583444
0.00557759
0.00532771
0.00508474
0.00484863
0.00461931
0.00439673
0.00418082
0.00397155
0.00376884
0.00357264
0.00338291
0.0031996
0.00302263
0.00285198
0.00268757
0.00252936
0.00237728
0.00223128
0.00209128
0.00195723
0.00182904
0.00170663
0.00158991
0.00147879
0.00137317
0.00127294
0.00117797
0.00108815
0.00100335
0.000923413
0.000848207
0.000777577
0.000711367
0.000649419
0.00059157
0.000537656
0.000487513
0.000440977
0.000397884
0.000358073
0.000321381
0.000287647
0.000256716
0.000228433
0.000202648
0.000179213
0.00015798
0.000138806
0.000121549
0.000106071
9.2238e-05
7.992e-05
6.89918e-05
5.93334e-05
5.08306e-05
4.33749e-05
3.68638e-05
3.12014e-05
2.6298e-05
2.20702e-05
1.84411e-05
1.534e-05
1.27023e-05
1.04692e-05
8.58786e-06
7.01053e-06
5.69471e-06
4.60262e-06
3.70093e-06
2.96038e-06
2.35546e-06
1.86403e-06
1.46702e-06
1.14811e-06
8.93403e-07
6.9118e-07
5.31587e-07
4.06402e-07
3.08813e-07
2.3321e-07
1.75012e-07
1.30502e-07
9.66866e-08
7.11654e-08
5.20333e-08
3.77884e-08
2.72571e-08
1.95256e-08
1.38895e-08
9.81019e-09
6.87988e-09
4.79008e-09
3.31048e-09
2.27127e-09
1.54674e-09
1.0454e-09
7.01215e-10
4.66749e-10
3.08281e-10
2.02028e-10
1.31357e-10
8.47304e-11
5.42186e-11
3.44157e-11
2.16692e-11
1.35328e-11
8.38243e-12
5.14968e-12
3.13764e-12
1.89596e-12
1.13617e-12
6.752e-13
3.9791e-13
2.32532e-13
1.34742e-13
7.74146e-14
4.40963e-14
2.49003e-14
1.39364e-14
7.73176e-15
4.24933e-15
0.0303443
0.0302826
0.0301861
0.0300565
0.0298947
0.0297022
0.029481
0.0292326
0.028959
0.0286616
0.0283421
0.028002
0.0276427
0.0272658
0.0268726
0.0264643
0.0260424
0.025608
0.0251625
0.0247069
0.0242426
0.0237705
0.0232919
0.0228077
0.022319
0.0218268
0.021332
0.0208355
0.0203383
0.019841
0.0193446
0.0188496
0.0183569
0.017867
0.0173806
0.0168982
0.0164203
0.0159473
0.0154797
0.0150179
0.0145622
0.0141128
0.0136701
0.0132342
0.0128055
0.0123839
0.0119697
0.0115629
0.0111637
0.010772
0.0103881
0.0100118
0.00964318
0.00928228
0.00892906
0.00858352
0.00824563
0.00791536
0.00759269
0.00727758
0.00697
0.00666991
0.00637729
0.0060921
0.00581432
0.00554392
0.00528087
0.00502515
0.00477675
0.00453564
0.00430182
0.00407526
0.00385595
0.00364387
0.00343901
0.00324134
0.00305085
0.0028675
0.00269125
0.00252207
0.0023599
0.00220469
0.00205635
0.00191483
0.00178001
0.0016518
0.00153008
0.00141472
0.00130559
0.00120254
0.0011054
0.001014
0.000928178
0.000847745
0.000772514
0.000702295
0.000636896
0.000576124
0.000519784
0.000467679
0.000419612
0.000375392
0.000334827
0.000297727
0.000263902
0.000233162
0.000205319
0.000180187
0.00015758
0.000137319
0.000119227
0.000103133
8.88713e-05
7.62835e-05
6.52179e-05
5.55305e-05
4.70856e-05
3.97555e-05
3.34211e-05
2.79717e-05
2.33052e-05
1.93278e-05
1.59539e-05
1.31058e-05
1.07136e-05
8.71434e-06
7.05218e-06
5.67753e-06
4.54677e-06
3.62171e-06
2.86911e-06
2.26029e-06
1.77059e-06
1.379e-06
1.06773e-06
8.21822e-07
6.28734e-07
4.78067e-07
3.61241e-07
2.71237e-07
2.02351e-07
1.49981e-07
1.10433e-07
8.07697e-08
5.86719e-08
4.23292e-08
3.03273e-08
2.15754e-08
1.52391e-08
1.06873e-08
7.4408e-09
5.14233e-09
3.52754e-09
2.4017e-09
1.62279e-09
1.08812e-09
7.23979e-10
4.77949e-10
3.13052e-10
2.03424e-10
1.31133e-10
8.38542e-11
5.31883e-11
3.34631e-11
2.08813e-11
1.29232e-11
7.93218e-12
4.82849e-12
2.91485e-12
1.74499e-12
1.03594e-12
6.09849e-13
3.55996e-13
2.06055e-13
1.18254e-13
6.72836e-14
3.79524e-14
2.12198e-14
1.17615e-14
6.45853e-15
0.0364714
0.0363955
0.0362795
0.0361257
0.0359351
0.0357096
0.0354512
0.035162
0.0348439
0.0344988
0.0341286
0.033735
0.0333198
0.0328845
0.0324308
0.0319602
0.0314741
0.0309741
0.0304615
0.0299375
0.0294036
0.028861
0.0283108
0.0277542
0.0271924
0.0266264
0.0260573
0.0254859
0.0249133
0.0243403
0.0237678
0.0231965
0.0226271
0.0220605
0.0214971
0.0209376
0.0203825
0.0198324
0.0192876
0.0187486
0.0182158
0.0176894
0.0171698
0.0166571
0.0161517
0.0156537
0.0151632
0.0146804
0.0142053
0.0137382
0.013279
0.0128277
0.0123845
0.0119492
0.0115221
0.011103
0.0106919
0.0102889
0.00989387
0.00950692
0.009128
0.0087571
0.00839423
0.00803939
0.00769259
0.00735383
0.00702314
0.00670054
0.00638606
0.00607972
0.00578156
0.00549162
0.00520993
0.00493654
0.00467147
0.00441477
0.00416647
0.00392659
0.00369515
0.00347216
0.00325763
0.00305153
0.00285384
0.00266453
0.00248353
0.00231078
0.00214617
0.0019896
0.00184095
0.00170006
0.00156679
0.00144096
0.00132239
0.00121086
0.00110619
0.00100816
0.000916535
0.000831106
0.000751641
0.0006779
0.000609652
0.000546664
0.000488702
0.000435528
0.000386902
0.000342581
0.000302321
0.000265876
0.000233002
0.000203459
0.000177007
0.000153414
0.000132454
0.000113908
9.75638e-05
8.32214e-05
7.06892e-05
5.97866e-05
5.03441e-05
4.22035e-05
3.52178e-05
2.92517e-05
2.41809e-05
1.98923e-05
1.62835e-05
1.32623e-05
1.07462e-05
8.66188e-06
6.94474e-06
5.53788e-06
4.39169e-06
3.4632e-06
2.71542e-06
2.11673e-06
1.64029e-06
1.26348e-06
9.67315e-07
7.35998e-07
5.56478e-07
4.18057e-07
3.12036e-07
2.31382e-07
1.70437e-07
1.24698e-07
9.06054e-08
6.53837e-08
4.68543e-08
3.33383e-08
2.35511e-08
1.65169e-08
1.14989e-08
7.94617e-09
5.45003e-09
3.70977e-09
2.50594e-09
1.67971e-09
1.11716e-09
7.37186e-10
4.8261e-10
3.13433e-10
2.01929e-10
1.29043e-10
8.17962e-11
5.14246e-11
3.2065e-11
1.98289e-11
1.21607e-11
7.39602e-12
4.46075e-12
2.66794e-12
1.58231e-12
9.30562e-13
5.42652e-13
3.13765e-13
1.79878e-13
1.02239e-13
5.76106e-14
3.218e-14
1.78206e-14
9.77768e-15
0.0439033
0.0438103
0.0436714
0.0434893
0.0432655
0.0430019
0.0427008
0.0423645
0.0419954
0.0415954
0.0411669
0.0407117
0.0402318
0.0397292
0.0392057
0.0386631
0.0381029
0.0375269
0.0369366
0.0363336
0.0357192
0.0350949
0.0344619
0.0338217
0.0331753
0.0325239
0.0318688
0.0312108
0.0305511
0.0298905
0.0292299
0.0285703
0.0279123
0.0272568
0.0266043
0.0259555
0.025311
0.0246713
0.0240369
0.0234083
0.0227857
0.0221697
0.0215603
0.020958
0.020363
0.0197755
0.0191955
0.0186234
0.0180591
0.0175029
0.0169547
0.0164147
0.0158828
0.0153592
0.0148438
0.0143367
0.0138379
0.0133474
0.0128652
0.0123914
0.011926
0.011469
0.0110205
0.0105804
0.0101489
0.00972598
0.00931174
0.00890624
0.00850958
0.00812184
0.00774313
0.00737355
0.00701321
0.00666222
0.00632071
0.00598877
0.00566653
0.0053541
0.00505156
0.004759
0.00447652
0.00420415
0.00394196
0.00368996
0.00344817
0.00321655
0.00299506
0.00278365
0.00258221
0.00239063
0.00220876
0.00203645
0.00187351
0.00171974
0.00157491
0.00143881
0.00131118
0.00119178
0.00108034
0.000976593
0.000880267
0.000791088
0.000708775
0.000633036
0.000563571
0.000500073
0.000442229
0.00038972
0.000342228
0.000299432
0.000261014
0.00022666
0.000196062
0.000168921
0.000144946
0.000123856
0.000105387
8.92823e-05
7.53045e-05
6.32283e-05
5.28442e-05
4.39579e-05
3.63905e-05
2.99785e-05
2.45731e-05
2.00399e-05
1.62583e-05
1.31206e-05
1.05317e-05
8.40738e-06
6.67426e-06
5.26843e-06
4.13475e-06
3.22599e-06
2.50192e-06
1.92869e-06
1.47768e-06
1.12508e-06
8.5119e-07
6.39819e-07
4.77801e-07
3.5447e-07
2.61215e-07
1.91188e-07
1.38969e-07
1.00311e-07
7.18971e-08
5.11641e-08
3.6147e-08
2.53512e-08
1.76486e-08
1.21947e-08
8.36271e-09
5.69124e-09
3.84342e-09
2.57543e-09
1.71227e-09
1.12943e-09
7.39059e-10
4.79746e-10
3.08908e-10
1.97292e-10
1.24978e-10
7.85201e-11
4.89253e-11
3.02327e-11
1.85266e-11
1.12585e-11
6.7845e-12
4.05415e-12
2.40224e-12
1.41142e-12
8.2226e-13
4.74966e-13
2.7202e-13
1.54457e-13
8.69505e-14
4.85238e-14
2.68484e-14
1.4719e-14
0.0528124
0.0526992
0.0525333
0.0523183
0.0520559
0.0517484
0.0513983
0.0510082
0.0505806
0.050118
0.0496228
0.0490972
0.0485436
0.0479642
0.047361
0.0467361
0.0460915
0.0454288
0.0447501
0.0440569
0.0433509
0.0426336
0.0419065
0.041171
0.0404285
0.0396803
0.0389274
0.0381712
0.0374126
0.0366526
0.0358923
0.0351324
0.0343739
0.0336174
0.0328638
0.0321136
0.0313675
0.030626
0.0298897
0.0291589
0.0284341
0.0277156
0.0270038
0.0262989
0.0256011
0.0249108
0.0242279
0.0235528
0.0228856
0.0222262
0.0215749
0.0209316
0.0202965
0.0196696
0.0190509
0.0184404
0.0178383
0.0172445
0.0166591
0.0160821
0.0155136
0.0149536
0.0144023
0.0138596
0.0133258
0.0128009
0.0122851
0.0117784
0.0112811
0.0107933
0.0103152
0.00984707
0.00938899
0.00894123
0.008504
0.00807753
0.00766203
0.00725771
0.0068648
0.0064835
0.00611398
0.00575643
0.00541099
0.0050778
0.00475695
0.00444851
0.00415253
0.003869
0.0035979
0.00333917
0.00309271
0.00285838
0.00263604
0.00242548
0.00222651
0.00203889
0.00186236
0.00169667
0.00154151
0.0013966
0.00126163
0.0011363
0.00102027
0.000913192
0.000814702
0.000724416
0.000641939
0.000566865
0.000498779
0.000437263
0.000381897
0.000332262
0.000287944
0.000248536
0.000213642
0.000182876
0.000155871
0.000132272
0.000111744
9.39728e-05
7.866e-05
6.55299e-05
5.43272e-05
4.48173e-05
3.6786e-05
3.00388e-05
2.44008e-05
1.97153e-05
1.58433e-05
1.26616e-05
1.00621e-05
7.95065e-06
6.24575e-06
4.87741e-06
3.78583e-06
2.92077e-06
2.23946e-06
1.70628e-06
1.29175e-06
9.71586e-07
7.25974e-07
5.38844e-07
3.97252e-07
2.90863e-07
2.1149e-07
1.52698e-07
1.09467e-07
7.79113e-08
5.50489e-08
3.86093e-08
2.68779e-08
1.85706e-08
1.27335e-08
8.66431e-09
5.84989e-09
3.91888e-09
2.60463e-09
1.71741e-09
1.12335e-09
7.28871e-10
4.69085e-10
2.99432e-10
1.8957e-10
1.19027e-10
7.41162e-11
4.57671e-11
2.80255e-11
1.70178e-11
1.02469e-11
6.11798e-12
3.62198e-12
2.12616e-12
1.23751e-12
7.14156e-13
4.0862e-13
2.31801e-13
1.3037e-13
7.26899e-14
4.01858e-14
2.20132e-14
0.0633896
0.0632524
0.0630549
0.0628015
0.0624945
0.0621364
0.06173
0.0612783
0.060784
0.0602499
0.0596787
0.0590732
0.0584359
0.0577693
0.0570759
0.056358
0.0556178
0.0548574
0.054079
0.0532843
0.0524752
0.0516536
0.0508209
0.0499788
0.0491288
0.0482721
0.0474102
0.0465442
0.0456753
0.0448045
0.0439328
0.0430613
0.0421907
0.0413218
0.0404554
0.0395922
0.0387327
0.0378776
0.0370273
0.0361823
0.035343
0.0345097
0.0336829
0.0328626
0.0320493
0.031243
0.030444
0.0296523
0.0288681
0.0280916
0.0273227
0.0265615
0.0258081
0.0250626
0.0243249
0.0235951
0.0228733
0.0221595
0.0214537
0.020756
0.0200666
0.0193854
0.0187127
0.0180484
0.0173929
0.0167463
0.0161087
0.0154803
0.0148615
0.0142525
0.0136536
0.013065
0.0124872
0.0119203
0.0113649
0.0108211
0.0102895
0.00977037
0.00926406
0.00877094
0.00829136
0.00782565
0.00737411
0.00693701
0.00651461
0.0061071
0.00571467
0.00533743
0.00497546
0.0046288
0.00429743
0.0039813
0.00368029
0.00339428
0.00312309
0.0028665
0.00262429
0.00239618
0.00218188
0.0019811
0.00179353
0.00161883
0.00145662
0.00130648
0.001168
0.00104069
0.000924071
0.000817633
0.000720844
0.000633166
0.00055405
0.000482944
0.000419298
0.000362567
0.000312214
0.000267717
0.000228569
0.000194283
0.000164397
0.000138469
0.000116083
9.68494e-05
8.04081e-05
6.64253e-05
5.45953e-05
4.46398e-05
3.63068e-05
2.93701e-05
2.36295e-05
1.89052e-05
1.50399e-05
1.1896e-05
9.35412e-06
7.31156e-06
5.68036e-06
4.38599e-06
3.36543e-06
2.56599e-06
1.94386e-06
1.46295e-06
1.09373e-06
8.12205e-07
5.99042e-07
4.38779e-07
3.19146e-07
2.30491e-07
1.65272e-07
1.17649e-07
8.31357e-08
5.83121e-08
4.05946e-08
2.80468e-08
1.92295e-08
1.30826e-08
8.8314e-09
5.91485e-09
3.93014e-09
2.59057e-09
1.69387e-09
1.09859e-09
7.06712e-10
4.50895e-10
2.85309e-10
1.79038e-10
1.11415e-10
6.87549e-11
4.20733e-11
2.55295e-11
1.53604e-11
9.16383e-12
5.42074e-12
3.17936e-12
1.8489e-12
1.06603e-12
6.09405e-13
3.45391e-13
1.94083e-13
1.08121e-13
5.97245e-14
3.26901e-14
0.0758425
0.0756769
0.0754421
0.0751439
0.0747849
0.0743683
0.073897
0.0733744
0.0728037
0.072188
0.0715304
0.0708339
0.0701017
0.0693366
0.0685415
0.0677189
0.0668715
0.0660017
0.0651119
0.0642041
0.0632805
0.062343
0.0613934
0.0604334
0.0594646
0.0584885
0.0575064
0.0565198
0.0555297
0.0545372
0.0535436
0.0525496
0.0515561
0.0505641
0.0495741
0.048587
0.0476033
0.0466235
0.0456481
0.0446777
0.0437125
0.0427529
0.0417993
0.0408517
0.0399105
0.0389758
0.0380477
0.0371264
0.036212
0.0353045
0.0344039
0.0335103
0.0326237
0.0317442
0.0308717
0.0300064
0.0291481
0.028297
0.0274532
0.0266166
0.0257874
0.0249657
0.0241517
0.0233455
0.0225474
0.0217575
0.0209761
0.0202035
0.0194402
0.0186863
0.0179424
0.0172088
0.0164861
0.0157747
0.0150751
0.0143879
0.0137136
0.0130528
0.012406
0.0117738
0.0111568
0.0105555
0.00997034
0.0094019
0.00885062
0.00831689
0.00780108
0.00730349
0.00682437
0.0063639
0.00592222
0.00549938
0.0050954
0.00471023
0.00434378
0.0039959
0.00366641
0.00335506
0.00306165
0.0027859
0.00252751
0.00228613
0.00206135
0.00185272
0.00165972
0.00148181
0.0013184
0.00116884
0.00103248
0.000908641
0.000796605
0.00069566
0.000605083
0.000524152
0.000452152
0.000388378
0.000332144
0.000282784
0.000239668
0.000202185
0.000169756
0.00014184
0.000117931
9.75589e-05
8.02927e-05
6.57372e-05
5.35339e-05
4.33596e-05
3.49254e-05
2.7974e-05
2.22783e-05
1.76392e-05
1.38836e-05
1.0862e-05
8.44611e-06
6.52686e-06
5.012e-06
3.82414e-06
2.89888e-06
2.18304e-06
1.63299e-06
1.21328e-06
8.95258e-07
6.5601e-07
4.77318e-07
3.44827e-07
2.47317e-07
1.76088e-07
1.24449e-07
8.72985e-08
6.07768e-08
4.19906e-08
2.87884e-08
1.95841e-08
1.32183e-08
8.85136e-09
5.87996e-09
3.87474e-09
2.53273e-09
1.64206e-09
1.05589e-09
6.73381e-10
4.25884e-10
2.67112e-10
1.66132e-10
1.02459e-10
6.26583e-11
3.79948e-11
2.28443e-11
1.36186e-11
8.04969e-12
4.71751e-12
2.74113e-12
1.57914e-12
9.01956e-13
5.10762e-13
2.86765e-13
1.59622e-13
8.81015e-14
4.81843e-14
0.0903919
0.0901928
0.0899141
0.0895632
0.0891434
0.0886584
0.0881118
0.0875072
0.0868483
0.0861388
0.0853823
0.0845823
0.0837424
0.082866
0.0819562
0.0810163
0.0800491
0.0790575
0.0780441
0.0770114
0.0759615
0.0748967
0.073819
0.0727302
0.0716319
0.0705259
0.0694135
0.068296
0.0671748
0.066051
0.0649256
0.0637995
0.0626737
0.061549
0.060426
0.0593054