/*--------------------------------*- C++ -*----------------------------------*\
| =========                 |                                                 |
| \\      /  F ield         | OpenFOAM: The Open Source CFD Toolbox           |
|  \\    /   O peration     | Version:  4.1                                   |
|   \\  /    A nd           | Web:      www.OpenFOAM.org                      |
|    \\/     M anipulation  |                                                 |
\*---------------------------------------------------------------------------*/
FoamFile
{
    version     2.0;
    format      ascii;
    class       volScalarField;
    location    "0.065";
    object      T;
}
// * * * * * * * * * * * * * * * * * * * * * * * * * * * * * * * * * * * * * //

dimensions      [0 0 0 1 0 0 0];

internalField   nonuniform List<scalar> 
12225
(
0.625082
0.501659
0.482429
0.479445
0.478893
0.478746
0.478693
0.478669
0.478656
0.478647
0.478638
0.478622
0.478584
0.47849
0.478255
0.477673
0.476213
0.472507
0.617081
0.498208
0.480748
0.478495
0.478335
0.47841
0.478486
0.478541
0.478578
0.478601
0.478613
0.478612
0.478585
0.4785
0.478278
0.477725
0.476375
0.473094
0.621282
0.500687
0.482151
0.479347
0.478884
0.478769
0.478724
0.4787
0.478684
0.478673
0.478662
0.478645
0.478609
0.478521
0.478309
0.477803
0.476628
0.474027
0.621277
0.500416
0.481761
0.479003
0.478628
0.478587
0.478593
0.478605
0.478616
0.478623
0.478626
0.478619
0.478591
0.478516
0.478329
0.477891
0.476919
0.474932
0.621238
0.500487
0.481847
0.479071
0.47869
0.478643
0.47864
0.478643
0.478646
0.478647
0.478645
0.478635
0.478608
0.478539
0.478376
0.478008
0.477237
0.475769
0.621177
0.50051
0.481888
0.479083
0.478687
0.478637
0.478634
0.478637
0.478641
0.478643
0.478642
0.478634
0.478611
0.478553
0.478417
0.478123
0.477534
0.47648
0.621178
0.500547
0.481941
0.479115
0.478704
0.47865
0.478645
0.478646
0.478649
0.47865
0.478649
0.478642
0.478622
0.478573
0.478464
0.478238
0.477805
0.477066
0.621179
0.500558
0.481969
0.479137
0.478717
0.478659
0.478652
0.478652
0.478654
0.478654
0.478653
0.478647
0.478631
0.47859
0.478502
0.478326
0.477999
0.477459
0.621177
0.500563
0.481988
0.479156
0.478731
0.478669
0.47866
0.478659
0.47866
0.47866
0.478658
0.478653
0.478639
0.478605
0.478535
0.478397
0.478149
0.477749
0.621174
0.500565
0.482002
0.479173
0.478745
0.47868
0.478669
0.478667
0.478667
0.478666
0.478664
0.478659
0.478648
0.478621
0.478567
0.478465
0.478284
0.478
0.621171
0.500564
0.482012
0.479188
0.478759
0.478692
0.47868
0.478676
0.478675
0.478674
0.478671
0.478667
0.478658
0.478638
0.478599
0.478525
0.478401
0.478208
0.621167
0.500561
0.482017
0.479198
0.478771
0.478704
0.47869
0.478686
0.478683
0.478682
0.478679
0.478675
0.478668
0.478654
0.478627
0.478578
0.478496
0.478373
0.621164
0.500557
0.482019
0.479205
0.47878
0.478714
0.4787
0.478696
0.478692
0.47869
0.478688
0.478684
0.478679
0.478669
0.478651
0.478621
0.47857
0.478496
0.621161
0.500553
0.482019
0.479209
0.478786
0.47872
0.478708
0.478704
0.478701
0.478698
0.478696
0.478693
0.478689
0.478683
0.478672
0.478653
0.478625
0.478584
0.621158
0.500549
0.482017
0.47921
0.478789
0.478725
0.478713
0.47871
0.478708
0.478706
0.478704
0.478701
0.478698
0.478694
0.478687
0.478677
0.478662
0.478641
0.621156
0.500546
0.482015
0.479209
0.47879
0.478728
0.478717
0.478714
0.478712
0.47871
0.478709
0.478708
0.478706
0.478703
0.478699
0.478693
0.478685
0.478676
0.621154
0.500544
0.482013
0.479208
0.47879
0.478728
0.478718
0.478716
0.478714
0.478714
0.478712
0.478711
0.47871
0.478708
0.478706
0.478703
0.478698
0.478694
0.621154
0.500543
0.482012
0.479208
0.47879
0.478728
0.478718
0.478715
0.478714
0.478714
0.478713
0.478712
0.478711
0.478709
0.478707
0.478705
0.478703
0.478702
0.621154
0.500543
0.482012
0.479207
0.478789
0.478728
0.478718
0.478714
0.478712
0.478712
0.47871
0.478709
0.478708
0.478707
0.478706
0.478704
0.478703
0.478702
0.621154
0.500544
0.482012
0.479207
0.478788
0.478725
0.478715
0.478711
0.478709
0.478707
0.478706
0.478705
0.478704
0.478703
0.478702
0.478701
0.4787
0.4787
0.621154
0.500545
0.482014
0.479206
0.478784
0.47872
0.478709
0.478705
0.478703
0.478701
0.478699
0.478698
0.478697
0.478697
0.478696
0.478695
0.478694
0.478694
0.621154
0.500547
0.482015
0.479204
0.47878
0.478714
0.478702
0.478698
0.478696
0.478694
0.478693
0.478692
0.478692
0.478691
0.478691
0.47869
0.478689
0.47869
0.621152
0.500551
0.482014
0.479195
0.478767
0.478701
0.478689
0.478685
0.478684
0.478683
0.478683
0.478682
0.478682
0.478683
0.478682
0.478682
0.478682
0.478683
0.621147
0.500559
0.482014
0.479187
0.478759
0.478694
0.478684
0.478681
0.478681
0.47868
0.47868
0.47868
0.478681
0.478681
0.478681
0.478681
0.478681
0.478682
0.621134
0.500551
0.481983
0.479149
0.478725
0.478665
0.478657
0.478657
0.478658
0.47866
0.478662
0.478664
0.478665
0.478667
0.478669
0.47867
0.478671
0.478673
0.621195
0.500594
0.48198
0.479154
0.478749
0.478696
0.478689
0.478687
0.478686
0.478685
0.478684
0.478682
0.478681
0.47868
0.47868
0.47868
0.478679
0.47868
0.621276
0.500532
0.481808
0.478971
0.478582
0.478548
0.478561
0.47858
0.478597
0.478611
0.478622
0.478631
0.478639
0.478645
0.478651
0.478655
0.478659
0.478661
0.621626
0.501078
0.482445
0.479563
0.479064
0.478923
0.47885
0.478804
0.478771
0.478747
0.47873
0.478716
0.478707
0.4787
0.478695
0.478691
0.47869
0.478684
0.617042
0.497852
0.480426
0.478232
0.478138
0.478261
0.478372
0.478454
0.478512
0.478553
0.478582
0.478604
0.47862
0.478632
0.478642
0.47865
0.478659
0.478657
0.625111
0.502056
0.482622
0.479575
0.479005
0.478839
0.47877
0.478733
0.478711
0.478697
0.478687
0.47868
0.478676
0.478673
0.478671
0.478671
0.478674
0.478662
0.298851
0.298841
0.298802
0.29875
0.298688
0.298613
0.298525
0.298426
0.298313
0.298189
0.298055
0.297912
0.297758
0.297596
0.297425
0.297247
0.297061
0.29687
0.296674
0.296474
0.29627
0.296065
0.295859
0.295653
0.295448
0.295245
0.295046
0.294851
0.294662
0.29448
0.294306
0.29414
0.293985
0.29384
0.293708
0.293588
0.293483
0.293392
0.293316
0.293258
0.293216
0.293191
0.293186
0.293198
0.293231
0.293283
0.293355
0.293447
0.293559
0.293693
0.293846
0.294021
0.294216
0.294431
0.294666
0.294921
0.295194
0.295487
0.295798
0.296127
0.296473
0.296835
0.297213
0.297607
0.298014
0.298436
0.29887
0.299316
0.299774
0.300242
0.30072
0.301206
0.301701
0.302204
0.302712
0.303227
0.303747
0.304271
0.304799
0.30533
0.305864
0.306399
0.306935
0.307471
0.308008
0.308543
0.309078
0.30961
0.31014
0.310666
0.31119
0.311709
0.312224
0.312733
0.313238
0.313736
0.314228
0.314714
0.315192
0.315664
0.316128
0.316584
0.317032
0.317472
0.317903
0.318326
0.31874
0.319145
0.319541
0.319928
0.320306
0.320674
0.321033
0.321382
0.321721
0.32205
0.322369
0.322677
0.322975
0.323263
0.323539
0.323805
0.32406
0.324303
0.324535
0.324755
0.324963
0.32516
0.325344
0.325515
0.325674
0.32582
0.325953
0.326073
0.32618
0.326273
0.326351
0.326416
0.326467
0.326503
0.326524
0.32653
0.326521
0.326497
0.326457
0.326401
0.326329
0.326241
0.326137
0.326016
0.325879
0.325724
0.325553
0.325363
0.325157
0.324934
0.324692
0.324433
0.324156
0.323862
0.323547
0.323215
0.322869
0.322492
0.322095
0.321681
0.321237
0.320777
0.320299
0.319804
0.319292
0.318763
0.318216
0.317653
0.317075
0.316482
0.315888
0.315261
0.314764
0.313697
0.299348
0.29933
0.299303
0.299262
0.299208
0.299141
0.29906
0.298967
0.298859
0.298737
0.298603
0.298459
0.298303
0.298138
0.297965
0.297783
0.297595
0.297401
0.297202
0.296999
0.296792
0.296584
0.296375
0.296167
0.295959
0.295754
0.295553
0.295356
0.295165
0.294981
0.294804
0.294636
0.294479
0.294332
0.294198
0.294076
0.293968
0.293875
0.293797
0.293736
0.293691
0.293664
0.293656
0.293666
0.293696
0.293745
0.293814
0.293903
0.294013
0.294144
0.294294
0.294465
0.294657
0.294869
0.295101
0.295352
0.295622
0.295912
0.296219
0.296544
0.296887
0.297246
0.29762
0.29801
0.298414
0.298832
0.299263
0.299706
0.30016
0.300625
0.301099
0.301583
0.302074
0.302573
0.303079
0.303591
0.304107
0.304629
0.305154
0.305682
0.306212
0.306745
0.307278
0.307812
0.308346
0.308879
0.309411
0.309941
0.310468
0.310993
0.311514
0.312031
0.312543
0.313051
0.313553
0.314049
0.314539
0.315023
0.315499
0.315968
0.31643
0.316884
0.31733
0.317768
0.318198
0.318618
0.31903
0.319434
0.319828
0.320213
0.320588
0.320954
0.321311
0.321658
0.321995
0.322321
0.322638
0.322944
0.32324
0.323525
0.3238
0.324063
0.324315
0.324556
0.324785
0.325002
0.325208
0.325402
0.325583
0.325752
0.325908
0.326051
0.326181
0.326298
0.326401
0.32649
0.326566
0.326628
0.326675
0.326707
0.326725
0.326728
0.326715
0.326687
0.326644
0.326584
0.326509
0.326417
0.326308
0.326184
0.326042
0.325883
0.325707
0.325514
0.325303
0.325074
0.324828
0.324564
0.324281
0.323981
0.32366
0.323322
0.322969
0.322591
0.322197
0.321789
0.321359
0.320909
0.320442
0.319956
0.319453
0.318931
0.318392
0.317837
0.317267
0.316682
0.316095
0.315485
0.314963
0.314099
0.300356
0.300317
0.300279
0.300233
0.300175
0.300102
0.300015
0.299914
0.299799
0.299672
0.299533
0.299383
0.299222
0.299053
0.298875
0.298689
0.298497
0.298299
0.298097
0.297891
0.297682
0.297471
0.297259
0.297048
0.296838
0.296631
0.296427
0.296227
0.296034
0.295847
0.295668
0.295497
0.295337
0.295187
0.29505
0.294925
0.294813
0.294717
0.294635
0.29457
0.294521
0.29449
0.294477
0.294483
0.294508
0.294552
0.294616
0.2947
0.294805
0.294929
0.295075
0.29524
0.295426
0.295632
0.295857
0.296103
0.296367
0.29665
0.296952
0.297271
0.297607
0.29796
0.298329
0.298713
0.299111
0.299524
0.299949
0.300386
0.300835
0.301295
0.301764
0.302243
0.30273
0.303224
0.303726
0.304233
0.304746
0.305264
0.305786
0.306311
0.306839
0.307369
0.3079
0.308432
0.308964
0.309496
0.310027
0.310556
0.311083
0.311607
0.312128
0.312646
0.313159
0.313668
0.314171
0.314668
0.31516
0.315645
0.316124
0.316595
0.317059
0.317516
0.317964
0.318405
0.318837
0.319261
0.319676
0.320082
0.320479
0.320867
0.321246
0.321615
0.321974
0.322324
0.322664
0.322994
0.323314
0.323623
0.323922
0.32421
0.324487
0.324753
0.325008
0.325252
0.325484
0.325704
0.325912
0.326108
0.326291
0.326462
0.32662
0.326765
0.326897
0.327016
0.327121
0.327211
0.327288
0.327351
0.327399
0.327432
0.327451
0.327454
0.327441
0.327414
0.32737
0.32731
0.327234
0.327142
0.327033
0.326907
0.326764
0.326604
0.326426
0.326231
0.326019
0.325788
0.32554
0.325273
0.324988
0.324685
0.324363
0.324023
0.323666
0.323287
0.322893
0.322484
0.322055
0.321607
0.32114
0.320655
0.320152
0.319631
0.319093
0.318537
0.317967
0.317381
0.31679
0.316177
0.315629
0.314867
0.30185
0.301793
0.301745
0.301693
0.301626
0.301545
0.301449
0.30134
0.301217
0.301083
0.300937
0.30078
0.300614
0.300438
0.300255
0.300064
0.299867
0.299664
0.299456
0.299245
0.299032
0.298816
0.2986
0.298385
0.298171
0.297959
0.297751
0.297547
0.297349
0.297157
0.296974
0.296799
0.296633
0.296478
0.296335
0.296205
0.296088
0.295985
0.295897
0.295826
0.295771
0.295733
0.295713
0.295711
0.295728
0.295764
0.29582
0.295896
0.295992
0.296108
0.296245
0.296401
0.296578
0.296775
0.296992
0.297228
0.297483
0.297757
0.298049
0.298359
0.298686
0.299029
0.299389
0.299764
0.300154
0.300557
0.300974
0.301403
0.301843
0.302295
0.302757
0.303228
0.303708
0.304196
0.304691
0.305192
0.305699
0.306212
0.306728
0.307249
0.307773
0.308299
0.308827
0.309356
0.309886
0.310415
0.310945
0.311473
0.311999
0.312524
0.313045
0.313564
0.314078
0.314588
0.315094
0.315594
0.316089
0.316577
0.317059
0.317534
0.318003
0.318463
0.318916
0.319362
0.319799
0.320227
0.320647
0.321059
0.321461
0.321855
0.322239
0.322614
0.322979
0.323334
0.32368
0.324016
0.324341
0.324657
0.324961
0.325255
0.325538
0.325809
0.32607
0.326319
0.326556
0.326781
0.326995
0.327195
0.327384
0.32756
0.327722
0.327872
0.328008
0.32813
0.328239
0.328333
0.328414
0.328479
0.32853
0.328566
0.328587
0.328593
0.328582
0.328556
0.328514
0.328456
0.328381
0.328289
0.328181
0.328055
0.327913
0.327752
0.327575
0.327379
0.327166
0.326934
0.326684
0.326417
0.326131
0.325826
0.325503
0.325161
0.324801
0.324422
0.324025
0.323612
0.32318
0.32273
0.32226
0.321773
0.321267
0.320743
0.320202
0.319643
0.319068
0.318477
0.317878
0.317256
0.316687
0.31597
0.303825
0.303757
0.303701
0.303642
0.303569
0.303479
0.303375
0.303257
0.303126
0.302984
0.30283
0.302665
0.302491
0.302308
0.302117
0.301919
0.301714
0.301505
0.301291
0.301073
0.300854
0.300632
0.30041
0.300189
0.299968
0.299751
0.299537
0.299327
0.299123
0.298925
0.298735
0.298553
0.298381
0.298219
0.298069
0.297931
0.297806
0.297695
0.2976
0.297519
0.297455
0.297408
0.297378
0.297367
0.297374
0.2974
0.297445
0.29751
0.297595
0.2977
0.297825
0.29797
0.298135
0.29832
0.298524
0.298748
0.298991
0.299252
0.299532
0.29983
0.300145
0.300476
0.300824
0.301187
0.301565
0.301957
0.302362
0.30278
0.303209
0.303651
0.304102
0.304563
0.305034
0.305512
0.305998
0.306491
0.306991
0.307496
0.308005
0.308519
0.309037
0.309558
0.310081
0.310606
0.311132
0.311659
0.312186
0.312712
0.313237
0.313761
0.314283
0.314802
0.315317
0.315829
0.316337
0.31684
0.317338
0.317829
0.318315
0.318795
0.319268
0.319733
0.320192
0.320642
0.321085
0.32152
0.321946
0.322363
0.322772
0.323172
0.323563
0.323945
0.324317
0.324679
0.325032
0.325375
0.325707
0.326029
0.326341
0.326642
0.326931
0.32721
0.327477
0.327733
0.327977
0.328208
0.328428
0.328635
0.328829
0.329011
0.329179
0.329334
0.329475
0.329602
0.329716
0.329815
0.329899
0.329969
0.330024
0.330063
0.330087
0.330095
0.330088
0.330064
0.330023
0.329967
0.329893
0.329803
0.329695
0.32957
0.329427
0.329267
0.329089
0.328893
0.328678
0.328446
0.328195
0.327926
0.327638
0.327331
0.327006
0.326662
0.326299
0.325917
0.325518
0.325101
0.324665
0.324211
0.323738
0.323246
0.322737
0.322209
0.321664
0.3211
0.32052
0.319923
0.319316
0.318685
0.3181
0.317393
0.306297
0.306222
0.30616
0.306094
0.306013
0.305916
0.305803
0.305676
0.305536
0.305384
0.305221
0.305047
0.304864
0.304672
0.304472
0.304266
0.304053
0.303835
0.303613
0.303388
0.30316
0.302931
0.302701
0.302472
0.302244
0.302019
0.301797
0.30158
0.301368
0.301162
0.300963
0.300773
0.300593
0.300422
0.300262
0.300115
0.29998
0.29986
0.299753
0.299662
0.299587
0.299528
0.299487
0.299463
0.299458
0.299471
0.299503
0.299555
0.299626
0.299717
0.299828
0.299958
0.300108
0.300278
0.300468
0.300677
0.300905
0.301151
0.301416
0.301698
0.301998
0.302314
0.302647
0.302995
0.303359
0.303736
0.304127
0.304531
0.304947
0.305375
0.305813
0.306262
0.30672
0.307187
0.307662
0.308144
0.308633
0.309128
0.309629
0.310134
0.310644
0.311157
0.311673
0.312192
0.312713
0.313235
0.313758
0.314282
0.314805
0.315327
0.315847
0.316366
0.316882
0.317395
0.317904
0.318409
0.31891
0.319405
0.319894
0.320378
0.320856
0.321326
0.32179
0.322246
0.322695
0.323135
0.323568
0.323992
0.324408
0.324815
0.325213
0.325602
0.325981
0.326351
0.326711
0.327062
0.327402
0.327731
0.328051
0.328359
0.328656
0.328942
0.329217
0.32948
0.329731
0.32997
0.330196
0.33041
0.330611
0.330799
0.330973
0.331134
0.331281
0.331414
0.331532
0.331636
0.331725
0.331799
0.331858
0.331901
0.331929
0.33194
0.331935
0.331913
0.331875
0.33182
0.331748
0.331659
0.331552
0.331427
0.331284
0.331124
0.330945
0.330748
0.330533
0.330299
0.330046
0.329775
0.329484
0.329175
0.328847
0.328499
0.328134
0.327749
0.327345
0.326924
0.326484
0.326026
0.325549
0.325053
0.324539
0.324007
0.323457
0.322888
0.322303
0.321699
0.321084
0.320443
0.319846
0.319131
0.30928
0.309202
0.309135
0.309062
0.308974
0.308869
0.308747
0.308611
0.308461
0.3083
0.308126
0.307942
0.307749
0.307547
0.307337
0.30712
0.306898
0.30667
0.306438
0.306204
0.305966
0.305728
0.305489
0.30525
0.305013
0.304778
0.304547
0.30432
0.304098
0.303882
0.303674
0.303473
0.303282
0.303101
0.30293
0.302771
0.302625
0.302492
0.302373
0.302269
0.30218
0.302108
0.302052
0.302014
0.301994
0.301992
0.302009
0.302045
0.3021
0.302174
0.302268
0.302381
0.302514
0.302667
0.302839
0.30303
0.30324
0.303468
0.303715
0.303979
0.304261
0.30456
0.304874
0.305205
0.305551
0.305911
0.306284
0.306672
0.307071
0.307483
0.307905
0.308339
0.308782
0.309234
0.309695
0.310163
0.310639
0.311122
0.311611
0.312105
0.312604
0.313108
0.313615
0.314126
0.314639
0.315155
0.315672
0.31619
0.316709
0.317228
0.317746
0.318263
0.318778
0.31929
0.3198
0.320306
0.320808
0.321306
0.321799
0.322286
0.322767
0.323242
0.32371
0.324172
0.324626
0.325072
0.325511
0.325941
0.326364
0.326777
0.327183
0.327579
0.327965
0.328343
0.328711
0.329068
0.329416
0.329754
0.330081
0.330397
0.330702
0.330996
0.331278
0.331549
0.331807
0.332053
0.332287
0.332508
0.332716
0.33291
0.333091
0.333258
0.333411
0.333549
0.333673
0.333782
0.333876
0.333955
0.334018
0.334065
0.334095
0.33411
0.334108
0.334089
0.334053
0.333999
0.333928
0.33384
0.333733
0.333609
0.333466
0.333305
0.333126
0.332927
0.33271
0.332475
0.33222
0.331946
0.331652
0.33134
0.331009
0.330658
0.330288
0.3299
0.329492
0.329067
0.328622
0.328159
0.327677
0.327177
0.326658
0.326121
0.325566
0.324992
0.3244
0.323789
0.323166
0.322516
0.321907
0.321178
0.3128
0.312721
0.312648
0.312568
0.312471
0.312357
0.312226
0.31208
0.31192
0.311747
0.311563
0.311368
0.311163
0.31095
0.310728
0.3105
0.310266
0.310027
0.309784
0.309538
0.30929
0.30904
0.30879
0.30854
0.308291
0.308045
0.307803
0.307564
0.307331
0.307103
0.306883
0.30667
0.306466
0.306272
0.306088
0.305916
0.305755
0.305608
0.305474
0.305355
0.305251
0.305163
0.305092
0.305037
0.304999
0.30498
0.304979
0.304996
0.305033
0.305088
0.305163
0.305256
0.30537
0.305502
0.305654
0.305824
0.306013
0.306221
0.306447
0.30669
0.306951
0.307229
0.307523
0.307833
0.308158
0.308498
0.308851
0.309219
0.309599
0.309991
0.310394
0.310809
0.311234
0.311669
0.312112
0.312564
0.313024
0.313492
0.313966
0.314446
0.314932
0.315423
0.315919
0.316418
0.316922
0.317428
0.317937
0.318448
0.31896
0.319473
0.319986
0.320499
0.321011
0.321521
0.32203
0.322535
0.323038
0.323536
0.32403
0.324519
0.325003
0.325481
0.325952
0.326418
0.326876
0.327327
0.327771
0.328207
0.328635
0.329055
0.329466
0.329868
0.330262
0.330646
0.331021
0.331386
0.331741
0.332086
0.33242
0.332744
0.333056
0.333358
0.333647
0.333925
0.334191
0.334444
0.334685
0.334912
0.335127
0.335328
0.335515
0.335688
0.335847
0.335991
0.33612
0.336234
0.336333
0.336416
0.336483
0.336534
0.336568
0.336585
0.336586
0.336569
0.336535
0.336483
0.336414
0.336326
0.33622
0.336096
0.335952
0.335791
0.33561
0.33541
0.335191
0.334953
0.334696
0.334419
0.334123
0.333807
0.333472
0.333117
0.332744
0.33235
0.331939
0.331508
0.331059
0.33059
0.330104
0.329598
0.329074
0.328532
0.327971
0.327391
0.326794
0.326176
0.325545
0.324886
0.324265
0.323519
0.316882
0.3168
0.31672
0.316632
0.316526
0.316402
0.316261
0.316104
0.315933
0.315749
0.315552
0.315344
0.315127
0.314901
0.314666
0.314425
0.314178
0.313926
0.31367
0.313411
0.313149
0.312886
0.312623
0.31236
0.312098
0.311839
0.311583
0.311331
0.311084
0.310842
0.310608
0.310381
0.310162
0.309953
0.309754
0.309566
0.30939
0.309227
0.309076
0.30894
0.308819
0.308713
0.308622
0.308549
0.308492
0.308453
0.308432
0.308428
0.308444
0.308478
0.308531
0.308602
0.308693
0.308803
0.308931
0.309079
0.309245
0.309429
0.309631
0.309851
0.310088
0.310341
0.310611
0.310897
0.311199
0.311515
0.311845
0.312189
0.312547
0.312916
0.313298
0.31369
0.314094
0.314507
0.314931
0.315363
0.315803
0.316252
0.316708
0.317171
0.31764
0.318115
0.318596
0.319081
0.319571
0.320065
0.320563
0.321063
0.321565
0.32207
0.322575
0.323081
0.323588
0.324093
0.324597
0.3251
0.3256
0.326096
0.326589
0.327078
0.327562
0.328041
0.328514
0.328981
0.329442
0.329896
0.330343
0.330783
0.331215
0.331639
0.332055
0.332462
0.332861
0.333251
0.333632
0.334003
0.334364
0.334715
0.335056
0.335385
0.335704
0.336012
0.336308
0.336593
0.336865
0.337125
0.337372
0.337606
0.337826
0.338033
0.338226
0.338405
0.338569
0.338718
0.338852
0.338971
0.339074
0.339161
0.339232
0.339286
0.339323
0.339344
0.339347
0.339332
0.3393
0.339249
0.33918
0.339093
0.338987
0.338863
0.338719
0.338556
0.338374
0.338173
0.337952
0.337711
0.337451
0.337171
0.336871
0.336552
0.336213
0.335854
0.335476
0.335079
0.334662
0.334226
0.333772
0.333298
0.332806
0.332296
0.331766
0.331218
0.330652
0.330066
0.329463
0.328838
0.3282
0.327532
0.3269
0.326138
0.32155
0.321465
0.321378
0.32128
0.321165
0.32103
0.320877
0.320708
0.320524
0.320326
0.320116
0.319895
0.319663
0.319422
0.319173
0.318917
0.318655
0.318388
0.318117
0.317842
0.317565
0.317287
0.317008
0.31673
0.316453
0.316179
0.315907
0.315639
0.315376
0.315119
0.314868
0.314625
0.31439
0.314164
0.313948
0.313742
0.313548
0.313366
0.313197
0.313042
0.3129
0.312774
0.312664
0.312569
0.312491
0.31243
0.312386
0.31236
0.312352
0.312362
0.312391
0.312438
0.312504
0.312588
0.312691
0.312813
0.312952
0.31311
0.313285
0.313478
0.313689
0.313915
0.314159
0.314418
0.314692
0.314981
0.315285
0.315602
0.315933
0.316276
0.316632
0.316999
0.317378
0.317767
0.318166
0.318574
0.318992
0.319418
0.319852
0.320293
0.320742
0.321198
0.321659
0.322127
0.322599
0.323077
0.323559
0.324045
0.324534
0.325026
0.325521
0.326017
0.326513
0.327011
0.327508
0.328003
0.328497
0.328989
0.329478
0.329964
0.330445
0.330922
0.331393
0.331859
0.33232
0.332774
0.333222
0.333663
0.334096
0.334523
0.334941
0.335351
0.335753
0.336147
0.336531
0.336906
0.337272
0.337627
0.337972
0.338307
0.338631
0.338944
0.339245
0.339535
0.339812
0.340077
0.340329
0.340568
0.340794
0.341006
0.341203
0.341387
0.341556
0.341709
0.341847
0.34197
0.342077
0.342167
0.342241
0.342298
0.342338
0.342361
0.342366
0.342352
0.342321
0.342272
0.342204
0.342117
0.342011
0.341885
0.341741
0.341577
0.341393
0.34119
0.340966
0.340723
0.34046
0.340177
0.339874
0.339551
0.339207
0.338844
0.338462
0.338059
0.337638
0.337197
0.336737
0.336258
0.335761
0.335245
0.33471
0.334157
0.333585
0.332994
0.332384
0.331754
0.331109
0.330433
0.329791
0.329014
0.326833
0.326744
0.326649
0.32654
0.326413
0.326266
0.3261
0.325917
0.325719
0.325506
0.325281
0.325043
0.324795
0.324537
0.324271
0.323998
0.323719
0.323434
0.323145
0.322853
0.322559
0.322263
0.321967
0.321671
0.321376
0.321084
0.320794
0.320509
0.320228
0.319952
0.319683
0.319421
0.319167
0.318922
0.318687
0.318461
0.318247
0.318045
0.317855
0.317678
0.317516
0.317367
0.317234
0.317116
0.317015
0.316929
0.316861
0.31681
0.316776
0.31676
0.316762
0.316783
0.316821
0.316878
0.316952
0.317045
0.317156
0.317284
0.31743
0.317593
0.317773
0.31797
0.318183
0.318411
0.318655
0.318914
0.319187
0.319474
0.319775
0.320088
0.320414
0.320752
0.321101
0.321462
0.321832
0.322213
0.322603
0.323002
0.32341
0.323826
0.32425
0.324682
0.32512
0.325565
0.326016
0.326473
0.326936
0.327403
0.327875
0.32835
0.328829
0.32931
0.329793
0.330278
0.330763
0.331248
0.331732
0.332215
0.332696
0.333174
0.333649
0.33412
0.334586
0.335048
0.335504
0.335955
0.3364
0.336839
0.337271
0.337697
0.338115
0.338525
0.338927
0.339321
0.339707
0.340083
0.340451
0.340808
0.341156
0.341493
0.34182
0.342136
0.34244
0.342733
0.343013
0.343282
0.343537
0.343779
0.344009
0.344224
0.344425
0.344612
0.344784
0.344941
0.345082
0.345207
0.345317
0.34541
0.345486
0.345545
0.345587
0.345611
0.345617
0.345605
0.345574
0.345525
0.345457
0.34537
0.345263
0.345137
0.344991
0.344826
0.34464
0.344435
0.344209
0.343963
0.343697
0.34341
0.343103
0.342776
0.342429
0.342061
0.341674
0.341267
0.34084
0.340395
0.339929
0.339445
0.338943
0.338421
0.337881
0.337322
0.336745
0.336149
0.335533
0.334898
0.334247
0.333564
0.332914
0.332125
0.332763
0.332668
0.332563
0.332443
0.332302
0.33214
0.331959
0.331761
0.331546
0.331315
0.331072
0.330815
0.330548
0.330271
0.329985
0.329692
0.329393
0.329088
0.328779
0.328466
0.328151
0.327835
0.327518
0.327202
0.326887
0.326574
0.326264
0.325958
0.325657
0.325361
0.325071
0.324789
0.324514
0.324247
0.32399
0.323743
0.323507
0.323282
0.323069
0.322869
0.322683
0.32251
0.322352
0.322209
0.322082
0.32197
0.321875
0.321797
0.321735
0.321691
0.321664
0.321655
0.321663
0.321689
0.321733
0.321794
0.321873
0.321969
0.322082
0.322212
0.322359
0.322522
0.322701
0.322895
0.323105
0.32333
0.323569
0.323822
0.324088
0.324368
0.32466
0.324964
0.32528
0.325607
0.325944
0.326293
0.326651
0.327019
0.327396
0.327781
0.328176
0.328578
0.328988
0.329406
0.329831
0.330262
0.3307
0.331143
0.331592
0.332046
0.332504
0.332966
0.333431
0.333898
0.334366
0.334835
0.335305
0.335774
0.336242
0.336708
0.337171
0.337631
0.338088
0.338541
0.33899
0.339433
0.339872
0.340304
0.340731
0.341152
0.341565
0.341972
0.342371
0.342762
0.343146
0.34352
0.343886
0.344243
0.34459
0.344927
0.345253
0.345569
0.345874
0.346167
0.346449
0.346718
0.346975
0.347219
0.347449
0.347666
0.347869
0.348057
0.348231
0.348389
0.348532
0.348659
0.348769
0.348863
0.348941
0.349001
0.349043
0.349068
0.349074
0.349062
0.349032
0.348982
0.348914
0.348826
0.348718
0.348591
0.348443
0.348276
0.348088
0.34788
0.347652
0.347403
0.347133
0.346843
0.346533
0.346202
0.34585
0.345478
0.345086
0.344675
0.344243
0.343792
0.343322
0.342833
0.342325
0.341799
0.341253
0.34069
0.340107
0.339506
0.338886
0.338245
0.33759
0.336902
0.336245
0.335446
0.339373
0.339271
0.339155
0.33902
0.338864
0.338685
0.338486
0.338268
0.338033
0.337782
0.337517
0.337238
0.336948
0.336648
0.336339
0.336022
0.335699
0.33537
0.335037
0.334701
0.334363
0.334023
0.333683
0.333343
0.333005
0.332669
0.332336
0.332007
0.331682
0.331363
0.33105
0.330744
0.330446
0.330156
0.329875
0.329604
0.329344
0.329094
0.328857
0.328632
0.328419
0.32822
0.328036
0.327865
0.32771
0.32757
0.327446
0.327338
0.327246
0.327171
0.327112
0.327071
0.327046
0.327039
0.327049
0.327075
0.327119
0.32718
0.327257
0.327351
0.32746
0.327586
0.327728
0.327885
0.328056
0.328243
0.328444
0.328658
0.328886
0.329127
0.32938
0.329646
0.329924
0.330213
0.330513
0.330824
0.331145
0.331476
0.331817
0.332167
0.332527
0.332895
0.333272
0.333657
0.334049
0.334449
0.334857
0.335271
0.335692
0.336118
0.33655
0.336986
0.337427
0.33787
0.338316
0.338764
0.339214
0.339663
0.340113
0.340561
0.341007
0.341452
0.341894
0.342333
0.342768
0.343199
0.343626
0.344048
0.344465
0.344876
0.345281
0.34568
0.346072
0.346456
0.346833
0.347202
0.347563
0.347915
0.348257
0.348591
0.348914
0.349227
0.349529
0.34982
0.3501
0.350367
0.350622
0.350865
0.351094
0.35131
0.351512
0.3517
0.351873
0.352031
0.352173
0.3523
0.35241
0.352504
0.35258
0.35264
0.352682
0.352706
0.352712
0.352699
0.352667
0.352617
0.352547
0.352457
0.352348
0.352219
0.352069
0.3519
0.35171
0.351499
0.351267
0.351015
0.350742
0.350449
0.350135
0.3498
0.349444
0.349068
0.348672
0.348256
0.347819
0.347364
0.346889
0.346395
0.345882
0.345351
0.344801
0.344232
0.343646
0.34304
0.342416
0.341771
0.341111
0.340419
0.339758
0.338951
0.346702
0.346591
0.346461
0.346309
0.346134
0.345934
0.345713
0.345472
0.345212
0.344936
0.344644
0.344339
0.344021
0.343693
0.343356
0.343011
0.342659
0.342303
0.341942
0.341578
0.341212
0.340844
0.340477
0.340111
0.339746
0.339384
0.339025
0.33867
0.338319
0.337974
0.337636
0.337304
0.33698
0.336665
0.336358
0.336061
0.335774
0.335497
0.335233
0.33498
0.33474
0.334512
0.334298
0.334099
0.333913
0.333742
0.333587
0.333447
0.333322
0.333213
0.333121
0.333044
0.332984
0.332941
0.332913
0.332903
0.332908
0.33293
0.332967
0.333021
0.33309
0.333175
0.333275
0.33339
0.333519
0.333663
0.333821
0.333992
0.334177
0.334374
0.334585
0.334807
0.335042
0.335287
0.335545
0.335813
0.336092
0.336381
0.33668
0.336989
0.337308
0.337636
0.337973
0.338319
0.338674
0.339037
0.339408
0.339787
0.340173
0.340566
0.340965
0.34137
0.341779
0.342193
0.342611
0.343032
0.343454
0.343878
0.344303
0.344727
0.345151
0.345574
0.345995
0.346415
0.346831
0.347245
0.347654
0.34806
0.348462
0.348858
0.34925
0.349636
0.350015
0.350388
0.350755
0.351113
0.351465
0.351808
0.352142
0.352467
0.352783
0.35309
0.353386
0.353671
0.353945
0.354208
0.354458
0.354696
0.354922
0.355134
0.355333
0.355517
0.355687
0.355842
0.355982
0.356106
0.356214
0.356305
0.35638
0.356437
0.356477
0.3565
0.356503
0.356488
0.356455
0.356402
0.35633
0.356238
0.356126
0.355995
0.355843
0.35567
0.355477
0.355263
0.355029
0.354773
0.354497
0.3542
0.353882
0.353543
0.353183
0.352803
0.352403
0.351982
0.351542
0.351082
0.350602
0.350104
0.349586
0.349051
0.348497
0.347924
0.347333
0.346724
0.346097
0.345449
0.344786
0.344092
0.343426
0.342615
0.354791
0.354669
0.354521
0.354349
0.354149
0.353924
0.353675
0.353405
0.353114
0.352806
0.352481
0.352142
0.351791
0.351429
0.351057
0.350678
0.350293
0.349903
0.349509
0.349112
0.348714
0.348316
0.347917
0.34752
0.347125
0.346733
0.346345
0.34596
0.345581
0.345208
0.344841
0.344481
0.344129
0.343785
0.343449
0.343124
0.342808
0.342503
0.342208
0.341926
0.341655
0.341397
0.341152
0.34092
0.340702
0.340498
0.340309
0.340134
0.339974
0.339829
0.339699
0.339585
0.339486
0.339403
0.339335
0.339283
0.339246
0.339225
0.339219
0.339229
0.339253
0.339293
0.339347
0.339415
0.339498
0.339594
0.339704
0.339828
0.339964
0.340113
0.340275
0.340449
0.340635
0.340832
0.341041
0.341261
0.341491
0.341733
0.341984
0.342246
0.342519
0.342801
0.343092
0.343393
0.343704
0.344023
0.344352
0.344689
0.345034
0.345386
0.345746
0.346112
0.346484
0.346862
0.347245
0.347631
0.34802
0.348411
0.348804
0.349199
0.349593
0.349988
0.350383
0.350776
0.351167
0.351557
0.351944
0.352328
0.352709
0.353085
0.353457
0.353825
0.354187
0.354544
0.354894
0.355238
0.355575
0.355904
0.356226
0.356539
0.356844
0.357139
0.357425
0.3577
0.357965
0.358219
0.358462
0.358692
0.35891
0.359116
0.359308
0.359486
0.35965
0.3598
0.359935
0.360054
0.360157
0.360245
0.360315
0.360368
0.360405
0.360423
0.360423
0.360405
0.360368
0.360312
0.360236
0.360141
0.360026
0.359891
0.359736
0.35956
0.359364
0.359147
0.358909
0.35865
0.35837
0.358069
0.357747
0.357405
0.357041
0.356657
0.356253
0.355828
0.355383
0.354919
0.354436
0.353933
0.353412
0.352872
0.352315
0.351739
0.351145
0.350533
0.349903
0.349253
0.348588
0.347893
0.347225
0.346412
0.363686
0.363549
0.363381
0.363182
0.362952
0.362694
0.362409
0.3621
0.36177
0.36142
0.361054
0.360673
0.360279
0.359875
0.359462
0.359041
0.358616
0.358186
0.357753
0.357318
0.356883
0.356447
0.356013
0.355581
0.355152
0.354726
0.354305
0.353888
0.353477
0.353072
0.352674
0.352282
0.351899
0.351524
0.351158
0.350801
0.350454