/*--------------------------------*- C++ -*----------------------------------*\
| =========                 |                                                 |
| \\      /  F ield         | OpenFOAM: The Open Source CFD Toolbox           |
|  \\    /   O peration     | Version:  4.1                                   |
|   \\  /    A nd           | Web:      www.OpenFOAM.org                      |
|    \\/     M anipulation  |                                                 |
\*---------------------------------------------------------------------------*/
FoamFile
{
    version     2.0;
    format      ascii;
    class       volScalarField;
    location    "0.055";
    object      T;
}
// * * * * * * * * * * * * * * * * * * * * * * * * * * * * * * * * * * * * * //

dimensions      [0 0 0 1 0 0 0];

internalField   nonuniform List<scalar> 
12225
(
1.11552
1.23317
1.29917
1.34126
1.36974
1.38851
1.40119
1.41004
1.41642
1.42116
1.42479
1.42763
1.4299
1.43177
1.4333
1.43469
1.43581
1.43518
0.860947
0.707839
0.632408
0.594821
0.576427
0.569644
0.569414
0.572758
0.577971
0.584077
0.590513
0.596954
0.603214
0.609181
0.61481
0.619994
0.624958
0.628865
1.03458
1.08006
1.10414
1.11423
1.11556
1.11189
1.10559
1.09802
1.08996
1.08185
1.07398
1.06647
1.05942
1.05284
1.04677
1.04114
1.0362
1.0315
1.00165
0.998855
0.992981
0.988432
0.986044
0.98539
0.98593
0.9872
0.988859
0.990683
0.992533
0.994323
0.995998
0.997539
0.998939
1.00018
1.0013
1.00234
1.00023
1.00039
1.00026
1.00043
1.00067
1.0008
1.00084
1.0008
1.00072
1.00062
1.00051
1.00042
1.00033
1.00027
1.00023
1.00019
1.00021
1.00021
0.999584
0.999244
0.998899
0.998714
0.99862
0.998535
0.998453
0.99839
0.998342
0.998302
0.998271
0.998244
0.99822
0.998204
0.998189
0.998174
0.998175
0.998153
0.999929
1.00011
1.00016
1.00019
1.00023
1.00025
1.00026
1.00026
1.00026
1.00026
1.00026
1.00025
1.00024
1.00023
1.00022
1.00021
1.00021
1.00019
0.999971
1.00007
1.00006
1.00002
1.00001
1.00001
1.00001
1
1
1
1
1.00001
1.00002
1.00002
1.00002
1.00003
1.00003
1.00003
0.999979
1.00004
1.00003
1.00002
1.00002
1.00002
1.00002
1.00002
1.00002
1.00003
1.00003
1.00003
1.00003
1.00003
1.00003
1.00003
1.00003
1.00003
0.999978
1.00002
1.00001
0.999998
0.999998
1
0.999999
0.999997
0.999996
0.999997
0.999995
0.999996
1
0.999999
0.999995
1
0.999995
0.999997
0.999985
1.00001
1.00001
1
1
0.999997
0.999997
0.999997
1
1
1
0.999998
0.999997
1
1
1
0.999997
1
0.999988
1.00001
1.00001
0.999999
0.999997
0.999999
0.999998
0.999999
0.999998
0.999996
0.999996
0.999997
0.999999
0.999999
1
1
0.999996
1
0.999989
1.00001
1.00001
1
0.999999
0.999999
1
1
0.999999
0.999998
1
0.999998
0.999999
1
0.999999
1
0.999993
0.999997
0.999991
1
1.00001
1.00001
1
1
0.999997
0.999998
0.999999
0.999998
0.999996
0.999998
0.999997
0.999997
0.999997
0.999997
0.999994
1
0.999993
1
1.00001
1.00001
1
1
0.999998
0.999999
0.999999
0.999999
1
0.999999
0.999999
1
0.999995
0.999998
0.999992
0.999998
0.999994
1
1.00001
1
1
1
1
0.999999
0.999999
0.999997
0.999997
1
1
1
0.999999
0.999998
0.999993
0.999999
0.999993
1
1
1
1
1
1
1
0.999999
1
1
0.999999
0.999998
0.999999
1
1
0.999997
0.999999
0.999995
1
1
1.00001
1.00001
1.00001
1
1
1
1
1
1
1.00001
1.00001
1
1
0.999997
1
0.999995
1
1
1
1
1
1.00001
1
0.999999
1
1
1
0.999997
0.999995
0.999999
0.999997
0.999991
0.999995
0.999992
1
1
1
1
1
1.00001
1.00001
1.00001
1
1.00001
1.00001
1.00001
1.00001
1.00001
1.00001
1.00001
1.00002
0.999991
0.999999
1.00001
1
0.999996
0.999991
0.999991
0.999988
0.999986
0.999985
0.999981
0.999979
0.999975
0.999972
0.999972
0.999972
0.999964
0.999966
0.999988
1
1.00001
1.00001
1.00002
1.00002
1.00003
1.00004
1.00004
1.00005
1.00006
1.00006
1.00007
1.00007
1.00008
1.00008
1.00008
1.00009
0.999982
1
1
0.999974
0.999943
0.999921
0.9999
0.999878
0.99986
0.999842
0.999828
0.999815
0.999802
0.999795
0.999786
0.999779
0.99977
0.999767
0.999965
1.00007
1.00018
1.00024
1.0003
1.00037
1.00043
1.00049
1.00054
1.00058
1.00062
1.00065
1.00067
1.00069
1.00071
1.00072
1.00073
1.00074
0.999753
0.999568
0.999366
0.999131
0.998913
0.998704
0.998509
0.998342
0.998201
0.998088
0.998002
0.997936
0.997889
0.997856
0.997838
0.997829
0.997822
0.997814
0.999992
1.00043
1.00095
1.00167
1.00247
1.00316
1.00368
1.00405
1.00429
1.00442
1.00447
1.00446
1.0044
1.00432
1.00421
1.00409
1.00396
1.00386
0.999945
0.996247
0.990161
0.98452
0.980273
0.977358
0.975527
0.97452
0.974115
0.974128
0.974432
0.974931
0.975556
0.976259
0.977006
0.977763
0.978549
0.979195
1.0214
1.05634
1.0798
1.09471
1.10362
1.10848
1.11069
1.11118
1.11056
1.10922
1.10743
1.10537
1.10317
1.1009
1.09862
1.09638
1.09417
1.09224
0.922802
0.82784
0.774466
0.743959
0.725618
0.714657
0.708441
0.705217
0.70388
0.70374
0.704359
0.705454
0.70684
0.708395
0.710039
0.711701
0.713398
0.714943
1.06291
1.12901
1.16726
1.19166
1.20826
1.21975
1.22781
1.23361
1.2379
1.24113
1.24365
1.24564
1.24725
1.24858
1.24971
1.25063
1.25155
1.25214
-4.53897e-20
-9.70807e-21
-1.16719e-20
-9.15303e-21
-1.3344e-22
5.75148e-21
1.17521e-20
1.71132e-20
1.9932e-20
2.01293e-20
1.85524e-20
1.6034e-20
1.32458e-20
1.05946e-20
8.26754e-21
6.31362e-21
4.7159e-21
3.43502e-21
2.42725e-21
1.64287e-21
1.01988e-21
5.51925e-22
5.51631e-22
1.71708e-21
2.94517e-21
-5.68258e-21
-4.7112e-20
-1.19361e-19
-4.75365e-20
7.45081e-19
3.08288e-18
6.2306e-18
2.78974e-18
-2.89192e-17
-1.25382e-16
-3.04679e-16
-4.54299e-16
-9.79889e-17
1.9312e-15
7.6957e-15
1.96813e-14
3.86551e-14
5.85147e-14
5.69083e-14
-1.84953e-14
-2.65609e-13
-8.3852e-13
-1.94031e-12
-3.77893e-12
-6.46235e-12
-9.80948e-12
-1.30619e-11
-1.45016e-11
-1.10116e-11
2.33615e-12
3.25326e-11
8.85343e-11
1.80589e-10
3.18742e-10
5.10305e-10
7.56133e-10
1.0457e-09
1.35117e-09
1.62081e-09
1.77255e-09
1.68847e-09
1.21173e-09
1.46934e-10
-1.73407e-09
-4.67993e-09
-8.93949e-09
-1.47328e-08
-2.22128e-08
-3.14187e-08
-4.22213e-08
-5.42638e-08
-6.69001e-08
-7.91359e-08
-8.95766e-08
-9.6389e-08
-9.72825e-08
-8.95149e-08
-6.99318e-08
-3.50434e-08
1.88575e-08
9.553e-08
1.98573e-07
3.31163e-07
4.95749e-07
6.93705e-07
9.2494e-07
1.18748e-06
1.47703e-06
1.78654e-06
2.10572e-06
2.42064e-06
2.7133e-06
2.96128e-06
3.13738e-06
3.20949e-06
3.14055e-06
2.889e-06
2.41098e-06
1.67028e-06
6.31429e-07
-7.3652e-07
-2.45899e-06
-4.55426e-06
-7.0322e-06
-9.89314e-06
-1.3127e-05
-1.67127e-05
-2.06182e-05
-2.48e-05
-2.92045e-05
-3.37681e-05
-3.84189e-05
-4.30778e-05
-4.76606e-05
-5.20797e-05
-5.62466e-05
-6.00737e-05
-6.34768e-05
-6.63775e-05
-6.87048e-05
-7.03977e-05
-7.14069e-05
-7.16961e-05
-7.12437e-05
-7.00433e-05
-6.81045e-05
-6.54523e-05
-6.21277e-05
-5.81866e-05
-5.36986e-05
-4.87458e-05
-4.34207e-05
-3.78231e-05
-3.20579e-05
-2.62333e-05
-2.04594e-05
-1.48453e-05
-9.49437e-06
-4.50171e-06
4.65915e-08
4.07325e-06
7.51622e-06
1.03296e-05
1.24754e-05
1.39245e-05
1.46806e-05
1.47691e-05
1.41753e-05
1.29313e-05
1.11479e-05
8.8215e-06
6.00363e-06
2.81535e-06
-7.34042e-07
-4.49207e-06
-8.39691e-06
-1.25284e-05
-1.66871e-05
-2.05199e-05
-2.43039e-05
-2.77933e-05
-3.06281e-05
-3.28354e-05
-3.44328e-05
-3.54474e-05
-3.59134e-05
-3.58643e-05
-3.53289e-05
-3.43159e-05
-3.28225e-05
-3.07319e-05
-2.7985e-05
-2.37621e-05
-1.8452e-05
-5.59603e-06
6.58824e-19
-1.98631e-20
6.66493e-20
-6.77603e-20
-2.32282e-19
-3.87677e-19
-4.90203e-19
-5.29916e-19
-5.19093e-19
-4.75859e-19
-4.16508e-19
-3.52883e-19
-2.92205e-19
-2.37993e-19
-1.91371e-19
-1.52153e-19
-1.19593e-19
-9.2797e-20
-7.09243e-20
-5.32292e-20
-3.8985e-20
-2.73521e-20
-1.77827e-20
-1.23513e-20
-1.94693e-20
-4.70989e-20
-5.31539e-20
1.68502e-19
1.03432e-18
2.60767e-18
2.43287e-18
-8.57804e-18
-4.84032e-17
-1.3046e-16
-2.06765e-16
-3.71244e-17
1.00314e-15
4.02246e-15
1.018e-14
1.88798e-14
2.34234e-14
3.13067e-15
-8.76762e-14
-3.30029e-13
-8.40228e-13
-1.74124e-12
-3.07864e-12
-4.64877e-12
-5.71037e-12
-4.57152e-12
1.91204e-12
1.88183e-11
5.34105e-11
1.14835e-10
2.12828e-10
3.54932e-10
5.41717e-10
7.59671e-10
9.71688e-10
1.10565e-09
1.04226e-09
6.04079e-10
-4.51141e-10
-2.4291e-09
-5.68493e-09
-1.05917e-08
-1.74872e-08
-2.65942e-08
-3.79153e-08
-5.10998e-08
-6.52915e-08
-7.89643e-08
-8.97614e-08
-9.43572e-08
-8.83658e-08
-6.6324e-08
-2.17789e-08
5.24917e-08
1.641e-07
3.20487e-07
5.28175e-07
7.91825e-07
1.11312e-06
1.48953e-06
1.91294e-06
2.36829e-06
2.83233e-06
3.27241e-06
3.64569e-06
3.89861e-06
3.96701e-06
3.77669e-06
3.24483e-06
2.28205e-06
7.95457e-07
-1.30761e-06
-4.11486e-06
-7.70345e-06
-1.21334e-05
-1.74392e-05
-2.36172e-05
-3.05959e-05
-3.82335e-05
-4.63758e-05
-5.48115e-05
-6.32824e-05
-7.14847e-05
-7.9075e-05
-8.56774e-05
-9.08922e-05
-9.43066e-05
-9.55065e-05
-9.40889e-05
-8.96749e-05
-8.19214e-05
-7.05339e-05
-5.52764e-05
-3.5981e-05
-1.25542e-05
1.50181e-05
4.66684e-05
8.22485e-05
0.000121532
0.000164221
0.00020995
0.0002583
0.000308805
0.000360967
0.000414265
0.000468173
0.000522171
0.000575752
0.000628436
0.000679775
0.000729356
0.000776812
0.000821822
0.000864118
0.000903475
0.000939706
0.000972674
0.00100228
0.00102847
0.0010512
0.00107043
0.00108612
0.0010983
0.00110706
0.00111241
0.00111429
0.00111272
0.00110791
0.0010997
0.00108809
0.00107344
0.00105544
0.00103412
0.00100985
0.000982098
0.000951509
0.00091793
0.000880086
0.000839003
0.000796444
0.000749388
0.000696639
0.000641842
0.000587041
0.000532979
0.000479988
0.000428276
0.00037797
0.000329102
0.000281513
0.000234916
0.000188465
0.000141548
9.19092e-05
4.06851e-05
-1.45151e-05
4.48277e-18
2.72657e-20
1.44681e-18
4.20088e-18
6.30794e-18
7.36702e-18
7.59383e-18
7.28364e-18
6.66952e-18
5.91193e-18
5.11895e-18
4.35793e-18
3.66528e-18
3.05581e-18
2.53091e-18
2.08463e-18
1.70781e-18
1.39069e-18
1.12425e-18
9.00818e-19
7.14193e-19
5.59504e-19
4.31546e-19
3.20148e-19
2.07432e-19
9.32067e-20
9.62652e-20
6.12546e-19
2.18094e-18
4.05707e-18
2.04029e-19
-2.62631e-17
-1.00455e-16
-2.18341e-16
-2.32188e-16
3.65081e-16
2.66198e-15
8.16364e-15
1.73425e-14
2.54591e-14
1.41359e-14
-6.14359e-14
-2.85553e-13
-7.82912e-13
-1.68248e-12
-3.00514e-12
-4.42618e-12
-4.86973e-12
-1.92877e-12
8.81234e-12
3.43347e-11
8.42069e-11
1.69429e-10
2.99246e-10
4.7499e-10
6.80109e-10
8.66035e-10
9.34429e-10
7.17802e-10
-3.75739e-11
-1.68035e-09
-4.64583e-09
-9.42056e-09
-1.64685e-08
-2.61081e-08
-3.83337e-08
-5.25791e-08
-6.74312e-08
-8.03131e-08
-8.71713e-08
-8.2215e-08
-5.77737e-08
-4.3497e-09
8.90511e-08
2.34226e-07
4.42646e-07
7.23844e-07
1.0833e-06
1.51985e-06
2.02277e-06
2.5686e-06
3.11802e-06
3.61308e-06
3.9751e-06
4.10363e-06
3.87698e-06
3.15458e-06
1.78162e-06
-4.03878e-07
-3.56145e-06
-7.83598e-06
-1.33433e-05
-2.01538e-05
-2.82753e-05
-3.76346e-05
-4.80608e-05
-5.9269e-05
-7.08472e-05
-8.22469e-05
-9.27776e-05
-0.000101605
-0.000107745
-0.000110227
-0.000107994
-9.99716e-05
-8.50911e-05
-6.23325e-05
-3.07617e-05
1.04296e-05
6.18854e-05
0.00012405
0.000197138
0.000281101
0.000375615
0.000480061
0.000593519
0.000714775
0.000842327
0.000974408
0.00110902
0.00124395
0.00137686
0.00150529
0.00162675
0.00173874
0.00183887
0.00192492
0.00199485
0.00204692
0.00207977
0.0020924
0.00208425
0.00205523
0.00200573
0.00193662
0.00184928
0.00174554
0.00162761
0.00149807
0.0013597
0.00121553
0.00106874
0.000922604
0.000780325
0.000644948
0.000519285
0.000405772
0.000306504
0.000223445
0.000158422
0.000112038
8.40069e-05
7.53855e-05
8.66102e-05
0.00011524
0.000160615
0.000222821
0.000298987
0.000386989
0.000486603
0.000593277
0.00070554
0.000820876
0.000933514
0.00104393
0.00115019
0.00124596
0.00132784
0.00139422
0.00144432
0.00147776
0.00149441
0.0014942
0.00147679
0.0014415
0.00138534
0.00130569
0.00118358
0.00103515
0.000670842
-2.24298e-18
-8.30968e-19
-3.76807e-17
-6.47817e-17
-7.45144e-17
-7.44525e-17
-6.98675e-17
-6.34003e-17
-5.63742e-17
-4.94246e-17
-4.28818e-17
-3.69149e-17
-3.15955e-17
-2.69308e-17
-2.28876e-17
-1.9409e-17
-1.64277e-17
-1.38748e-17
-1.16865e-17
-9.80681e-18
-8.18876e-18
-6.79379e-18
-5.59237e-18
-4.56789e-18
-3.71904e-18
-3.02851e-18
-2.33655e-18
-1.13119e-18
1.33416e-18
4.34978e-18
7.42396e-19
-3.05271e-17
-1.22418e-16
-2.74769e-16
-3.10221e-16
4.02917e-16
3.23797e-15
1.00776e-14
2.13386e-14
3.02968e-14
1.17944e-14
-9.42142e-14
-3.96961e-13
-1.04648e-12
-2.16274e-12
-3.64226e-12
-4.77347e-12
-3.61626e-12
3.81314e-12
2.4337e-11
6.78988e-11
1.4648e-10
2.70427e-10
4.40712e-10
6.35743e-10
7.92018e-10
7.79432e-10
3.74615e-10
-7.60767e-10
-3.08544e-09
-7.15194e-09
-1.35289e-08
-2.26518e-08
-3.45842e-08
-4.86816e-08
-6.31633e-08
-7.46214e-08
-7.75275e-08
-6.38279e-08
-2.27597e-08
5.89576e-08
1.96374e-07
4.04829e-07
6.97589e-07
1.08252e-06
1.55778e-06
2.10672e-06
2.69227e-06
3.25124e-06
3.6894e-06
3.87792e-06
3.65235e-06
2.81509e-06
1.1422e-06
-1.60451e-06
-5.65967e-06
-1.12307e-05
-1.84691e-05
-2.74369e-05
-3.80712e-05
-5.01481e-05
-6.32493e-05
-7.67345e-05
-8.97234e-05
-0.000101089
-0.000109469
-0.000113291
-0.000110818
-0.000100221
-7.96667e-05
-4.74584e-05
-2.24177e-06
5.71841e-05
0.000131651
0.000221548
0.000326746
0.000446547
0.000579644
0.000724105
0.000877377
0.00103631
0.00119721
0.0013559
0.00150781
0.00164805
0.00177155
0.00187316
0.00194774
0.00199029
0.00199607
0.00196066
0.00188007
0.00175077
0.00156984
0.00133491
0.00104428
0.000696913
0.0002925
-0.000168564
-0.000685153
-0.00125539
-0.00187665
-0.00254556
-0.003258
-0.00400909
-0.00479324
-0.0056042
-0.00643513
-0.00727857
-0.00812653
-0.0089707
-0.00980272
-0.0106143
-0.0113971
-0.0121424
-0.0128409
-0.0134859
-0.0140718
-0.0145927
-0.0150404
-0.0154099
-0.0157029
-0.0159141
-0.0160361
-0.016075
-0.0160293
-0.015893
-0.015671
-0.0153654
-0.0149743
-0.0145038
-0.0139551
-0.0133305
-0.0126453
-0.0118996
-0.0110926
-0.0102411
-0.00936296
-0.00847264
-0.00758112
-0.00669673
-0.00582559
-0.00497157
-0.00413581
-0.00331692
-0.00250856
-0.00170479
-0.000892289
-9.89823e-05
0.000772329
-2.24573e-16
-6.31017e-17
3.57907e-16
5.27269e-16
5.45843e-16
5.10712e-16
4.60343e-16
4.08245e-16
3.59397e-16
3.15092e-16
2.75445e-16
2.40221e-16
2.09113e-16
1.81793e-16
1.57919e-16
1.37135e-16
1.1908e-16
1.03404e-16
8.97715e-17
7.78805e-17
6.74663e-17
5.83065e-17
5.02193e-17
4.30537e-17
3.66763e-17
3.09817e-17
2.59929e-17
2.20972e-17
2.01401e-17
2.02396e-17
1.71838e-17
-8.40614e-18
-9.47646e-17
-2.6804e-16
-4.12329e-16
2.38644e-17
2.42051e-15
9.00252e-15
2.12016e-14
3.4076e-14
2.41536e-14
-6.96856e-14
-3.64861e-13
-1.02949e-12
-2.20337e-12
-3.76815e-12
-4.87592e-12
-3.17892e-12
6.17196e-12
3.14297e-11
8.43029e-11
1.77854e-10
3.20396e-10
5.03253e-10
6.8059e-10
7.4102e-10
4.73696e-10
-4.63479e-10
-2.55935e-09
-6.42704e-09
-1.2715e-08
-2.19193e-08
-3.40675e-08
-4.82572e-08
-6.20558e-08
-7.08101e-08
-6.69654e-08
-3.95577e-08
2.58904e-08
1.46788e-07
3.41893e-07
6.28427e-07
1.01767e-06
1.50893e-06
2.08212e-06
2.68921e-06
3.24562e-06
3.62254e-06
3.64183e-06
3.07523e-06
1.65003e-06
-9.37234e-07
-4.99731e-06
-1.08143e-05
-1.86014e-05
-2.84473e-05
-4.02569e-05
-5.36891e-05
-6.80975e-05
-8.24825e-05
-9.5458e-05
-0.000105243
-0.000109685
-0.000106315
-9.24421e-05
-6.52891e-05
-2.21617e-05
3.93499e-05
0.000121143
0.000224337
0.000348923
0.000493877
0.000657034
0.000834818
0.0010222
0.00121266
0.00139824
0.00156963
0.00171632
0.0018269
0.00188928
0.00189109
0.00182008
0.00166451
0.00141363
0.00105808
0.000590301
4.93615e-06
-0.000700899
-0.00152738
-0.00247185
-0.00352878
-0.00468983
-0.00594406
-0.00727814
-0.00867677
-0.0101231
-0.0115992
-0.0130869
-0.014568
-0.0160252
-0.0174424
-0.0188053
-0.0201013
-0.0213205
-0.0224553
-0.0235015
-0.0244579
-0.0253257
-0.0261079
-0.0268091
-0.0274359
-0.0279974
-0.0285044
-0.0289671
-0.0293931
-0.0297902
-0.0301691
-0.030539
-0.0309059
-0.0312676
-0.0316338
-0.0320092
-0.0323803
-0.0327561
-0.0331298
-0.0334887
-0.0338284
-0.0341389
-0.0344106
-0.0346311
-0.0347867
-0.0348636
-0.0348473
-0.0347241
-0.0344775
-0.0340945
-0.0335681
-0.0328952
-0.0320746
-0.0311063
-0.0299899
-0.0287236
-0.0273004
-0.0257076
-0.0239076
-0.0218754
-0.0194259
-0.0168443
-0.0122837
4.08179e-15
1.2762e-15
-1.79629e-15
-2.80231e-15
-2.88877e-15
-2.68149e-15
-2.40467e-15
-2.1289e-15
-1.8784e-15
-1.65726e-15
-1.46328e-15
-1.29281e-15
-1.14264e-15
-1.01023e-15
-8.93528e-16
-7.90779e-16
-7.00425e-16
-6.21018e-16
-5.51193e-16
-4.8967e-16
-4.35269e-16
-3.86928e-16
-3.43726e-16
-3.04895e-16
-2.69826e-16
-2.38061e-16
-2.09208e-16
-1.82723e-16
-1.57608e-16
-1.32718e-16
-1.09589e-16
-1.00191e-16
-1.3743e-16
-2.68673e-16
-4.78036e-16
-4.51366e-16
8.53483e-16
5.57998e-15
1.63156e-14
3.22474e-14
3.89152e-14
-1.08234e-14
-2.20949e-13
-7.62286e-13
-1.82109e-12
-3.40207e-12
-4.87332e-12
-4.15788e-12
3.40073e-12
2.61746e-11
7.65412e-11
1.68749e-10
3.11999e-10
4.95893e-10
6.65779e-10
6.87522e-10
3.0559e-10
-8.94465e-10
-3.49814e-09
-8.21655e-09
-1.57412e-08
-2.64529e-08
-3.99449e-08
-5.43454e-08
-6.54711e-08
-6.5914e-08
-4.42548e-08
1.52952e-08
1.32426e-07
3.2897e-07
6.25377e-07
1.03504e-06
1.55631e-06
2.16236e-06
2.78958e-06
3.32582e-06
3.60019e-06
3.37727e-06
2.35828e-06
1.92553e-07
-3.49784e-06
-9.07839e-06
-1.68463e-05
-2.69594e-05
-3.93538e-05
-5.36538e-05
-6.90843e-05
-8.43934e-05
-9.77972e-05
-0.000106956
-0.000108997
-0.000100584
-7.80431e-05
-3.75496e-05
2.46389e-05
0.000111899
0.000226932
0.000371429
0.000545739
0.000748532
0.000976412
0.00122414
0.00148387
0.0017452
0.00199509
0.00221788
0.00239541
0.00250732
0.00253139
0.00244405
0.00222108
0.00183828
0.00127246
0.000502327
-0.00049045
-0.00172017
-0.00319605
-0.00492121
-0.00689176
-0.00909606
-0.0115142
-0.0141177
-0.0168696
-0.0197245
-0.0226295
-0.0255253
-0.0283469
-0.0310257
-0.0334918
-0.0356752
-0.0375093
-0.0389323
-0.0398899
-0.0403371
-0.0402395
-0.0395757
-0.0383382
-0.0365352
-0.0341903
-0.0313421
-0.0280411
-0.0243482
-0.0203342
-0.0160799
-0.0116755
-0.00722055
-0.00279615
0.00151176
0.00562092
0.00943075
0.012892
0.0159409
0.0185099
0.0205804
0.0221168
0.0230994
0.0235252
0.0233909
0.0227119
0.0215045
0.0197974
0.0176256
0.0150276
0.0120644
0.00878598
0.00524373
0.0015125
-0.00232646
-0.00619405
-0.0100182
-0.0137357
-0.0172922
-0.0206421
-0.0237464
-0.0265742
-0.0290797
-0.0312458
-0.0328549
-0.0341314
-0.0334804
-3.87964e-14
-1.12319e-14
4.86925e-15
1.09049e-14
1.21958e-14
1.17435e-14
1.0758e-14
9.6587e-15
8.61442e-15
7.67652e-15
6.8498e-15
6.12221e-15
5.47938e-15
4.90932e-15
4.40277e-15
3.95242e-15
3.55218e-15
3.19675e-15
2.88126e-15
2.60116e-15
2.35212e-15
2.13002e-15
1.93102e-15
1.75163e-15
1.58877e-15
1.43987e-15
1.30282e-15
1.1761e-15
1.05899e-15
9.51632e-16
8.54125e-16
7.61995e-16
6.56106e-16
4.92875e-16
2.25257e-16
-7.30734e-17
1.16085e-16
2.2692e-15
9.07091e-15
2.29516e-14
4.00158e-14
3.5578e-14
-6.01256e-14
-3.87251e-13
-1.15042e-12
-2.51064e-12
-4.25939e-12
-5.13915e-12
-1.73887e-12
1.28704e-11
5.00957e-11
1.2491e-10
2.50587e-10
4.25726e-10
6.10059e-10
6.87197e-10
4.16876e-10
-6.12456e-10
-3.00762e-09
-7.53322e-09
-1.49601e-08
-2.57392e-08
-3.94457e-08
-5.39691e-08
-6.44836e-08
-6.23321e-08
-3.40865e-08
3.88121e-08
1.79282e-07
4.12063e-07
7.58789e-07
1.23019e-06
1.8153e-06
2.46809e-06
3.0927e-06
3.5293e-06
3.5434e-06
2.82245e-06
9.83663e-07
-2.4031e-06
-7.77396e-06
-1.55098e-05
-2.58553e-05
-3.88229e-05
-5.40859e-05
-7.08724e-05
-8.78701e-05
-0.000103156
-0.000114161
-0.000117685
-0.000109965
-8.68047e-05
-4.37589e-05
2.36236e-05
0.00011952
0.000247517
0.000410285
0.000609245
0.00084428
0.00111355
0.00141352
0.00173746
0.00207581
0.00241576
0.00274109
0.00303206
0.00326529
0.00341394
0.00344788
0.00333411
0.00303735
0.0025209
0.00174768
0.000681581
-0.00071098
-0.00245923
-0.00458603
-0.00710575
-0.0100219
-0.0133252
-0.0169913
-0.0209791
-0.0252292
-0.0296637
-0.0341855
-0.0386795
-0.0430139
-0.0470434
-0.0506111
-0.0535534
-0.0557053
-0.0569059
-0.0570038
-0.0558633
-0.0533692
-0.0494328
-0.0439965
-0.0370362
-0.0285645
-0.0186356
-0.00734368
0.00518507
0.0187994
0.0333196
0.048546
0.0642107
0.0800978
0.0959753
0.111619
0.126752
0.141191
0.154738
0.167213
0.178478
0.188409
0.196901
0.203892
0.209335
0.213209
0.21551
0.216254
0.215475
0.213214
0.209541
0.204524
0.198231
0.19076
0.182229
0.17276
0.162476
0.151488
0.139891
0.127761
0.11514
0.102039
0.0883893
0.0741731
0.0589562
0.0439916
0.0232299
2.46304e-13
6.59466e-14
-1.91732e-15
-3.40698e-14
-4.49515e-14
-4.63983e-14
-4.41988e-14
-4.06586e-14
-3.68504e-14
-3.32233e-14
-2.99352e-14
-2.7003e-14
-2.43919e-14
-2.20602e-14
-1.99729e-14
-1.81021e-14
-1.64254e-14
-1.49238e-14
-1.35806e-14
-1.23802e-14
-1.1308e-14
-1.035e-14
-9.4925e-15
-8.72216e-15
-8.0264e-15
-7.39355e-15
-6.81332e-15
-6.27702e-15
-5.77757e-15
-5.30911e-15
-4.86668e-15
-4.44715e-15
-4.05421e-15
-3.70918e-15
-3.45937e-15
-3.34788e-15
-3.26367e-15
-2.5727e-15
4.29432e-16
8.6739e-15
2.43747e-14
4.16985e-14
3.00239e-14
-9.28889e-14
-4.85622e-13
-1.3651e-12
-2.86003e-12
-4.60118e-12
-4.90175e-12
5.1718e-13
1.99777e-11
6.65432e-11
1.56027e-10
2.99176e-10
4.83997e-10
6.44489e-10
6.14829e-10
7.47581e-11
-1.49653e-09
-4.82439e-09
-1.07484e-08
-1.99698e-08
-3.2566e-08
-4.72176e-08
-6.01529e-08
-6.39027e-08
-4.61082e-08
1.12071e-08
1.31315e-07
3.40687e-07
6.64363e-07
1.11817e-06
1.69751e-06
2.36308e-06
3.02466e-06
3.52516e-06
3.62805e-06
3.01221e-06
1.27834e-06
-2.02862e-06
-7.3786e-06
-1.51954e-05
-2.57773e-05
-3.9204e-05
-5.52368e-05
-7.32225e-05
-9.20116e-05
-0.000109901
-0.000124613
-0.000133312
-0.000132663
-0.000118929
-8.81059e-05
-3.60769e-05
4.12066e-05
0.000147534
0.000286233
0.000459982
0.000670706
0.000919875
0.00120699
0.00152981
0.00188392
0.00226237
0.00265524
0.00304908
0.00342652
0.00376572
0.0040399
0.00421707
0.00425977
0.00412518
0.00376548
0.00312874
0.00216025
0.000804495
-0.000992237
-0.00327863
-0.00609452
-0.00946651
-0.0134032
-0.0178905
-0.0228867
-0.0283189
-0.0340793
-0.0400235
-0.0459707
-0.0517052
-0.0569811
-0.0615264
-0.0650504
-0.0672538
-0.0678395
-0.066524
-0.0630487
-0.0571887
-0.0487725
-0.0376819
-0.0238568
-0.00730616
0.011885
0.0335599
0.0575142
0.0834796
0.111168
0.140166
0.170102
0.200585
0.231195
0.261532
0.291214
0.319878
0.34719
0.372861
0.396647
0.418339
0.437782
0.454861
0.469501
0.481665
0.491347
0.498566
0.503366
0.505809
0.505967
0.50391
0.499724
0.493507
0.485356
0.47536
0.463596
0.450118
0.434944
0.418034
0.399313
0.378487
0.355536
0.328871
0.302116
0.258471
-1.20748e-12
-3.20326e-13
-5.67602e-14
9.24909e-14
1.56722e-13
1.76401e-13
1.76042e-13
1.66647e-13
1.53854e-13
1.40414e-13
1.2762e-13
1.15931e-13
1.05393e-13
9.59038e-14
8.73465e-14
7.96221e-14
7.26495e-14
6.63612e-14
6.06982e-14
5.56066e-14
5.10359e-14
4.69381e-14
4.32668e-14
3.99766e-14
3.7022e-14
3.43585e-14
3.1943e-14
2.97354e-14
2.77003e-14
2.58083e-14
2.40362e-14
2.23677e-14
2.07901e-14
1.92889e-14
1.78351e-14
1.63755e-14
1.48593e-14
1.33824e-14
1.25485e-14
1.40198e-14
2.07232e-14
3.50586e-14
5.18769e-14
4.21696e-14
-7.34583e-14
-4.49856e-13
-1.30097e-12
-2.75643e-12
-4.45556e-12
-4.73003e-12
6.7019e-13
2.00197e-11
6.62655e-11
1.5487e-10
2.95589e-10
4.7403e-10
6.19192e-10
5.56328e-10
-4.83106e-11
-1.73172e-09
-5.23096e-09
-1.13766e-08
-2.0812e-08
-3.34651e-08
-4.77257e-08
-5.93407e-08
-6.01516e-08
-3.69468e-08
2.91186e-08
1.61912e-07
3.87793e-07
7.30457e-07
1.20264e-06
1.79465e-06
2.46035e-06
3.10203e-06
3.55666e-06
3.58658e-06
2.87824e-06
1.05246e-06
-2.31147e-06
-7.63685e-06
-1.52972e-05
-2.5554e-05
-3.84914e-05
-5.39538e-05
-7.1494e-05
-9.03393e-05
-0.000109375
-0.000127148
-0.000141885
-0.000151516
-0.000153695
-0.000145818
-0.00012503
-8.8224e-05
-3.20487e-05
4.70518e-05
0.000152734
0.000288014
0.000456146
0.000660397
0.000903644
0.00118814
0.00151505
0.00188392
0.00229186
0.00273252
0.00319497
0.00366226
0.00410991
0.00450454
0.00480251
0.00494901
0.0048778
0.00451199
0.00376585
0.00254821
0.000767235
-0.00166355
-0.00481745
-0.00874566
-0.0134679
-0.0189633
-0.0251612
-0.0319344
-0.0390936
-0.0463855
-0.0534968
-0.0600638
-0.0656758
-0.0698921
-0.0722582
-0.0723247
-0.0696715
-0.063907
-0.0547202
-0.0418772
-0.0252292
-0.00472461
0.0195824
0.047527
0.0788618
0.113252
0.150278
0.189476
0.230335
0.272319
0.314881
0.357485
0.399615
0.440792
0.48058
0.518594
0.554507
0.588051
0.619018
0.647259
0.672678
0.695229
0.714912
0.731766
0.745856
0.757274
0.766124
0.772519
0.776566
0.778378
0.778053
0.77567
0.771286
0.764915
0.756538
0.746058
0.733357
0.71801
0.700098
0.677378
0.654614
0.611996
5.10832e-12
1.46101e-12
4.18447e-13
-2.21469e-13
-5.40717e-13
-6.67333e-13
-6.9791e-13
-6.80066e-13
-6.3996e-13
-5.91496e-13
-5.42154e-13
-4.95493e-13
-4.52701e-13
-4.13776e-13
-3.78403e-13
-3.46243e-13
-3.17007e-13
-2.90455e-13
-2.66381e-13
-2.44598e-13
-2.24927e-13
-2.072e-13
-1.91252e-13
-1.76925e-13
-1.64064e-13
-1.52512e-13
-1.42114e-13
-1.32712e-13
-1.24155e-13
-1.16306e-13
-1.09042e-13
-1.02267e-13
-9.59037e-14
-8.98938e-14
-8.42003e-14
-7.88127e-14
-7.37547e-14
-6.90665e-14
-6.46907e-14
-6.01619e-14
-5.40762e-14
-4.37065e-14
-2.60722e-14
-3.23e-15
4.32812e-15
-6.59103e-14
-3.44857e-13
-1.03054e-12
-2.28917e-12
-3.94093e-12
-4.78966e-12
-1.52252e-12
1.26372e-11
4.8787e-11
1.2108e-10
2.40584e-10
4.00589e-10
5.49763e-10
5.51831e-10
1.36229e-10
-1.14547e-09
-3.92802e-09
-8.95957e-09
-1.68875e-08
-2.78399e-08
-4.07583e-08
-5.24855e-08
-5.66993e-08
-4.29036e-08
4.17289e-09
1.04289e-07
2.79961e-07
5.52768e-07
9.37359e-07
1.43319e-06
2.01455e-06
2.62009e-06
3.14353e-06
3.42795e-06
3.26562e-06
2.40533e-06
5.67881e-07
-2.53107e-06
-7.15299e-06
-1.35072e-05
-2.17244e-05
-3.18377e-05
-4.37736e-05
-5.73514e-05
-7.22915e-05
-8.82219e-05
-0.000104678
-0.000121088
-0.000136733
-0.000150682
-0.000161711
-0.000168227
-0.00016833
-0.000160463
-0.000142207
-0.000110315
-6.06435e-05
1.20534e-05
0.000114273
0.000253813
0.000439628
0.000681411
0.000988765
0.00136987
0.00182957
0.00236686
0.00297177
0.00362197
0.00427925
0.00488631
0.00536455
0.0056132
0.0055109
0.00492061
0.00369771
0.00169857
-0.00120521
-0.00511156
-0.0100717
-0.0160741
-0.0230309
-0.0307671
-0.0390129
-0.0473947
-0.0554647
-0.0626984
-0.0685171
-0.0723146
-0.0734809
-0.0714516
-0.0656941
-0.0557852
-0.0414111
-0.0223813
0.00135629
0.0297129
0.0624665
0.0992705
0.139671
0.183126
0.229027
0.27673
0.325575
0.37491
0.424108
0.472589
0.519828
0.565366
0.608818
0.649869
0.688282
0.723891
0.756589
0.786331
0.81313
0.837041
0.858155
0.876599
0.892512
0.906056
0.917402
0.926715
0.93416
0.939887
0.944034
0.94671
0.947987
0.947911
0.946453
0.943594
0.939022
0.932997
0.923595
0.914852
0.893094
-2.03944e-11
-6.52601e-12
-2.27695e-12
3.88162e-13
1.85686e-12
2.52621e-12
2.7657e-12
2.77168e-12
2.65837e-12
2.4896e-12
2.30241e-12
2.11727e-12
1.9436e-12
1.78367e-12
1.63712e-12
1.50293e-12
1.38007e-12
1.26769e-12
1.16507e-12
1.07157e-12
9.86586e-13
9.0952e-13
8.39788e-13
7.76814e-13
7.20039e-13
6.68918e-13
6.22903e-13
5.81435e-13
5.43942e-13
5.0986e-13
4.78655e-13
4.4986e-13
4.23086e-13
3.98032e-13
3.74468e-13
3.52227e-13
3.31175e-13
3.11185e-13
2.92125e-13
2.73913e-13
2.5674e-13
2.41532e-13
2.3051e-13
2.27024e-13
2.32653e-13
2.38176e-13
2.05199e-13
4.01927e-14
-4.22398e-13
-1.38264e-12
-2.8978e-12
-4.44643e-12
-4.13161e-12
2.44197e-12
2.32379e-11
6.98147e-11
1.54479e-10
2.81892e-10
4.32122e-10
5.33077e-10
4.23452e-10
-1.86444e-10
-1.73919e-09
-4.81177e-09
-1.00151e-08
-1.77675e-08
-2.79049e-08
-3.91156e-08
-4.82361e-08
-4.95111e-08
-3.40058e-08
1.05665e-08
9.92922e-08
2.48487e-07
4.72918e-07
7.81829e-07
1.17408e-06
1.63303e-06
2.12212e-06
2.58224e-06
2.93194e-06
3.07121e-06
2.8888e-06
2.27253e-06
1.12063e-06
-6.47718e-07
-3.0856e-06
-6.21713e-06
-1.00432e-05
-1.45546e-05
-1.97508e-05
-2.56639e-05
-3.23858e-05
-4.00956e-05
-4.90839e-05
-5.9763e-05
-7.26435e-05
-8.82287e-05
-0.000106087
-0.000126336
-0.000148683
-0.00017216
-0.000194647
-0.00021226
-0.000218656
-0.00020433
-0.000156096
-5.69853e-05
0.000113152
0.00037603
0.000752077
0.00125623
0.00189244
0.0026474
0.00348389
0.00433504
0.00510011
0.00564273
0.00579055
0.00535309
0.00412742
0.00191834
-0.00143905
-0.0060548
-0.0119594
-0.0190817
-0.0272329
-0.0361028
-0.0452337
-0.0540648
-0.0619363
-0.0681198
-0.0718569
-0.072399
-0.0690495
-0.0612111
-0.0484131
-0.0303419
-0.00685856
0.0219929
0.0559878
0.094735
0.137701
0.184235
0.233602
0.285016
0.337677
0.390799
0.443637
0.495511
0.545823
0.594066
0.639829
0.682801
0.722764
0.75959
0.793227
0.823693
0.851058
0.875448
0.897014
0.915935
0.932412
0.94665
0.958858
0.969245
0.97801
0.985353
0.991455
0.996482
1.00059
1.0039
1.00653
1.00856
1.01008
1.01096
1.01162
1.0108
1.01132
1.00659
8.13216e-11
2.86028e-11
1.11861e-11
1.89313e-13
-6.31171e-12
-9.55736e-12
-1.09466e-11
-1.12697e-11
-1.10102e-11
-1.04485e-11
-9.75377e-12
-9.02771e-12
-8.32715e-12
-7.67248e-12
-7.06701e-12
-6.50872e-12
-5.99428e-12
-5.52058e-12
-5.08511e-12
-4.68572e-12
-4.32036e-12
-3.98699e-12
-3.68357e-12
-3.40804e-12
-3.15832e-12
-2.93238e-12
-2.72823e-12
-2.54389e-12
-2.37731e-12
-2.22634e-12
-2.08883e-12
-1.96275e-12
-1.84628e-12
-1.73793e-12
-1.63654e-12
-1.54121e-12
-1.45132e-12
-1.36641e-12
-1.2862e-12
-1.2105e-12
-1.13921e-12
-1.07211e-12
-1.0085e-12
-9.46604e-13
-8.83046e-13
-8.13628e-13
-7.37903e-13
-6.71043e-13
-6.6532e-13
-8.36686e-13
-1.37538e-12
-2.49145e-12
-4.21225e-12
-5.92962e-12
-5.62868e-12
1.12461e-12
2.2049e-11
6.79805e-11
1.50173e-10
2.73049e-10
4.2035e-10
5.33608e-10
4.84345e-10
4.57718e-11
-1.12432e-09
-3.4712e-09
-7.47809e-09
-1.35242e-08
-2.16486e-08
-3.12195e-08
-4.0535e-08
-4.64185e-08
-4.39036e-08
-2.6134e-08
1.53976e-08
9.01754e-08
2.07526e-07
3.75104e-07
5.97194e-07
8.73133e-07
1.19623e-06
1.55351e-06
1.92647e-06
2.29292e-06
2.62954e-06
2.91478e-06
3.13169e-06
3.27029e-06
3.32941e-06
3.31789e-06
3.2546e-06
3.16522e-06
3.07016e-06
2.95366e-06
2.70413e-06
2.04621e-06
6.32869e-07
-1.98801e-06
-6.61803e-06
-1.4457e-05
-2.71149e-05
-4.64461e-05
-7.41133e-05
-0.000110767
-0.00015477
-0.000200714
-0.00023785
-0.000248816
-0.00020922
-8.86501e-05
0.000146369
0.000527154
0.00107539
0.0017939
0.0026566
0.00359909
0.00451207
0.00524228
0.00558132
0.00529596
0.00413674
0.00186435
-0.00171907
-0.00673653
-0.0132037
-0.0210017
-0.0298569
-0.0393324
-0.0488382
-0.0576473
-0.0649303
-0.0698002
-0.0713647
-0.0687806
-0.0613093
-0.0483646
-0.0295496
-0.00468296
0.0261905
0.0628028
0.104679
0.151167
0.201476
0.254714
0.309938
0.366194
0.422558
0.47817
0.532262
0.584173
0.633367
0.679433
0.72208
0.761137
0.796538
0.82831
0.856548
0.881415