/*--------------------------------*- C++ -*----------------------------------*\
| =========                 |                                                 |
| \\      /  F ield         | OpenFOAM: The Open Source CFD Toolbox           |
|  \\    /   O peration     | Version:  4.1                                   |
|   \\  /    A nd           | Web:      www.OpenFOAM.org                      |
|    \\/     M anipulation  |                                                 |
\*---------------------------------------------------------------------------*/
FoamFile
{
    version     2.0;
    format      ascii;
    class       volScalarField;
    location    "0.02";
    object      T;
}
// * * * * * * * * * * * * * * * * * * * * * * * * * * * * * * * * * * * * * //

dimensions      [0 0 0 1 0 0 0];

internalField   nonuniform List<scalar> 
12225
(
0.625082
0.501659
0.482429
0.479445
0.478893
0.478746
0.478693
0.478669
0.478655
0.478643
0.478628
0.478594
0.47851
0.478298
0.477766
0.47645
0.473159
0.464662
0.617081
0.498208
0.480748
0.478495
0.478335
0.478409
0.478486
0.478541
0.478576
0.478597
0.478603
0.478585
0.478513
0.478313
0.477806
0.476555
0.473508
0.466119
0.621282
0.500687
0.482151
0.479347
0.478884
0.478769
0.478724
0.478699
0.478683
0.47867
0.478653
0.478619
0.47854
0.478345
0.477867
0.476725
0.47407
0.4682
0.621277
0.500416
0.481761
0.479003
0.478628
0.478587
0.478593
0.478605
0.478615
0.47862
0.478617
0.478595
0.478527
0.478353
0.477928
0.476934
0.474736
0.470261
0.621238
0.500487
0.481847
0.479071
0.47869
0.478643
0.47864
0.478643
0.478645
0.478644
0.478636
0.478613
0.47855
0.478393
0.478023
0.477191
0.475446
0.472144
0.621177
0.50051
0.481888
0.479083
0.478687
0.478637
0.478634
0.478637
0.47864
0.47864
0.478634
0.478614
0.47856
0.478426
0.478117
0.477451
0.47612
0.473747
0.621178
0.500547
0.481941
0.479115
0.478704
0.47865
0.478644
0.478646
0.478648
0.478647
0.478642
0.478624
0.478577
0.478466
0.478219
0.477705
0.476727
0.475063
0.621179
0.500558
0.481969
0.479137
0.478717
0.478659
0.478652
0.478652
0.478653
0.478652
0.478647
0.478632
0.478592
0.4785
0.478301
0.477901
0.477164
0.475947
0.621177
0.500563
0.481988
0.479156
0.478731
0.478669
0.47866
0.478659
0.478659
0.478658
0.478653
0.478639
0.478606
0.47853
0.478371
0.478058
0.477499
0.476596
0.621174
0.500565
0.482002
0.479173
0.478745
0.47868
0.478669
0.478667
0.478666
0.478664
0.47866
0.478648
0.478621
0.478561
0.478439
0.478206
0.4778
0.477158
0.621171
0.500564
0.482012
0.479188
0.478759
0.478692
0.47868
0.478676
0.478674
0.478672
0.478667
0.478658
0.478637
0.478592
0.478503
0.478338
0.478058
0.477622
0.621167
0.500561
0.482017
0.479198
0.478771
0.478704
0.47869
0.478686
0.478683
0.47868
0.478676
0.478669
0.478653
0.478621
0.47856
0.47845
0.478267
0.477988
0.621164
0.500557
0.482019
0.479205
0.47878
0.478714
0.4787
0.478696
0.478692
0.478689
0.478686
0.478679
0.478669
0.478647
0.478608
0.478539
0.478426
0.478259
0.621161
0.500553
0.482019
0.479209
0.478786
0.47872
0.478708
0.478704
0.478701
0.478698
0.478695
0.47869
0.478683
0.478669
0.478645
0.478605
0.478541
0.478448
0.621158
0.500549
0.482017
0.47921
0.478789
0.478725
0.478713
0.47871
0.478708
0.478705
0.478703
0.478699
0.478695
0.478686
0.478672
0.478651
0.478617
0.478569
0.621156
0.500546
0.482015
0.479209
0.47879
0.478728
0.478717
0.478714
0.478712
0.47871
0.478709
0.478707
0.478704
0.478699
0.478691
0.47868
0.478664
0.478642
0.621154
0.500544
0.482013
0.479208
0.47879
0.478728
0.478718
0.478716
0.478714
0.478714
0.478712
0.47871
0.478709
0.478707
0.478703
0.478697
0.478689
0.47868
0.621154
0.500543
0.482012
0.479208
0.47879
0.478728
0.478718
0.478715
0.478714
0.478714
0.478713
0.478712
0.478711
0.478708
0.478706
0.478703
0.478699
0.478696
0.621154
0.500543
0.482012
0.479207
0.478789
0.478728
0.478718
0.478714
0.478712
0.478712
0.47871
0.478709
0.478708
0.478707
0.478706
0.478703
0.478701
0.4787
0.621154
0.500544
0.482012
0.479207
0.478788
0.478725
0.478715
0.478711
0.478709
0.478707
0.478706
0.478705
0.478704
0.478703
0.478702
0.4787
0.478699
0.478699
0.621154
0.500545
0.482014
0.479206
0.478784
0.47872
0.478709
0.478705
0.478703
0.478701
0.478699
0.478698
0.478697
0.478696
0.478696
0.478695
0.478693
0.478694
0.621154
0.500547
0.482015
0.479204
0.47878
0.478714
0.478702
0.478698
0.478696
0.478694
0.478693
0.478692
0.478692
0.478691
0.478691
0.47869
0.478689
0.478689
0.621152
0.500551
0.482014
0.479195
0.478767
0.478701
0.478689
0.478685
0.478684
0.478683
0.478683
0.478682
0.478682
0.478683
0.478682
0.478682
0.478682
0.478683
0.621147
0.500559
0.482014
0.479187
0.478759
0.478694
0.478684
0.478681
0.478681
0.47868
0.47868
0.47868
0.478681
0.478681
0.478681
0.478681
0.478681
0.478682
0.621134
0.500551
0.481983
0.479149
0.478725
0.478665
0.478657
0.478657
0.478658
0.47866
0.478662
0.478664
0.478665
0.478667
0.478669
0.47867
0.478671
0.478672
0.621195
0.500594
0.48198
0.479154
0.478749
0.478696
0.478689
0.478687
0.478686
0.478685
0.478684
0.478682
0.478681
0.47868
0.47868
0.47868
0.478679
0.47868
0.621276
0.500532
0.481808
0.478971
0.478582
0.478548
0.478561
0.47858
0.478597
0.478611
0.478622
0.478631
0.478639
0.478645
0.478651
0.478655
0.478659
0.478661
0.621626
0.501078
0.482445
0.479563
0.479064
0.478923
0.47885
0.478804
0.478771
0.478747
0.47873
0.478716
0.478707
0.4787
0.478695
0.478691
0.47869
0.478684
0.617042
0.497852
0.480426
0.478232
0.478138
0.478261
0.478372
0.478454
0.478512
0.478553
0.478582
0.478604
0.47862
0.478632
0.478642
0.47865
0.478659
0.478657
0.625111
0.502056
0.482622
0.479575
0.479005
0.478839
0.47877
0.478733
0.478711
0.478697
0.478687
0.47868
0.478676
0.478673
0.478671
0.478671
0.478674
0.478662
0.0795344
0.0795014
0.0794329
0.079332
0.0791994
0.0790342
0.0788373
0.0786089
0.0783492
0.0780593
0.0777404
0.0773931
0.0770181
0.0766164
0.0761891
0.0757371
0.0752618
0.0747641
0.0742453
0.0737067
0.0731494
0.0725747
0.071984
0.0713784
0.0707592
0.0701277
0.0694851
0.0688327
0.0681716
0.0675032
0.0668284
0.0661486
0.0654648
0.0647782
0.0640896
0.0634003
0.0627111
0.0620229
0.0613367
0.0606533
0.0599736
0.0592981
0.0586278
0.0579631
0.0573047
0.0566531
0.0560088
0.0553723
0.054744
0.0541242
0.0535132
0.0529112
0.0523185
0.0517352
0.0511614
0.0505972
0.0500425
0.0494975
0.0489619
0.0484359
0.0479192
0.0474117
0.0469132
0.0464236
0.0459426
0.04547
0.0450056
0.0445492
0.0441003
0.0436589
0.0432246
0.0427971
0.0423761
0.0419612
0.0415522
0.0411488
0.0407505
0.0403571
0.0399681
0.0395831
0.0392018
0.0388237
0.0384483
0.0380752
0.0377038
0.0373336
0.036964
0.0365944
0.0362242
0.0358528
0.0354794
0.0351034
0.0347241
0.0343408
0.0339528
0.0335595
0.0331603
0.0327544
0.0323414
0.0319207
0.0314918
0.0310544
0.0306079
0.0301522
0.0296869
0.0292119
0.028727
0.028232
0.0277269
0.0272118
0.0266865
0.0261512
0.025606
0.0250511
0.0244866
0.0239128
0.02333
0.0227386
0.0221389
0.0215314
0.0209167
0.0202953
0.0196678
0.019035
0.0183975
0.0177563
0.0171122
0.0164662
0.0158191
0.0151722
0.0145264
0.0138829
0.0132429
0.0126076
0.0119783
0.0113562
0.0107427
0.010139
0.0095464
0.00896618
0.00839957
0.00784778
0.00731195
0.00679316
0.00629243
0.00581068
0.00534872
0.00490727
0.00448692
0.00408815
0.00371129
0.00335655
0.003024
0.00271354
0.00242497
0.00215796
0.00191201
0.00168655
0.00148087
0.00129417
0.00112556
0.000974094
0.000838772
0.000718499
0.000612212
0.000518845
0.000437292
0.000366498
0.000305416
0.000253037
0.000208402
0.000170607
0.000138807
0.000112225
9.01495e-05
7.19374e-05
5.70178e-05
4.48824e-05
3.51322e-05
2.73964e-05
0.08057
0.0805343
0.080466
0.0803638
0.0802283
0.08006
0.0798595
0.0796271
0.0793633
0.0790688
0.0787447
0.0783919
0.0780115
0.0776046
0.0771721
0.0767152
0.076235
0.0757328
0.0752097
0.074667
0.0741059
0.0735276
0.0729333
0.0723245
0.0717022
0.0710678
0.0704224
0.0697673
0.0691038
0.0684329
0.0677558
0.0670737
0.0663878
0.0656989
0.0650083
0.0643169
0.0636257
0.0629355
0.0622474
0.0615621
0.0608803
0.060203
0.0595307
0.0588642
0.0582039
0.0575505
0.0569045
0.0562663
0.0556362
0.0550147
0.054402
0.0537984
0.0532041
0.0526193
0.052044
0.0514784
0.0509224
0.050376
0.0498393
0.049312
0.0487942
0.0482857
0.0477862
0.0472957
0.046814
0.0463407
0.0458756
0.0454186
0.0449693
0.0445274
0.0440928
0.043665
0.0432437
0.0428288
0.0424198
0.0420164
0.0416183
0.0412251
0.0408364
0.0404518
0.040071
0.0396935
0.0393189
0.0389465
0.038576
0.0382068
0.0378382
0.0374698
0.0371008
0.0367305
0.0363584
0.0359837
0.0356057
0.0352237
0.0348369
0.0344447
0.0340464
0.0336414
0.0332291
0.0328088
0.0323801
0.0319425
0.0314957
0.0310392
0.0305728
0.0300963
0.0296094
0.0291121
0.0286042
0.0280856
0.0275565
0.0270168
0.0264666
0.025906
0.0253353
0.0247546
0.0241643
0.0235646
0.022956
0.0223389
0.0217138
0.0210812
0.0204418
0.0197963
0.0191455
0.0184901
0.017831
0.0171692
0.0165057
0.0158415
0.0151778
0.0145157
0.0138565
0.0132014
0.0125517
0.0119088
0.0112739
0.0106485
0.0100338
0.00943131
0.00884225
0.0082679
0.00770951
0.00716824
0.00664519
0.00614136
0.00565767
0.00519491
0.00475376
0.00433476
0.00393834
0.00356474
0.00321411
0.00288642
0.00258149
0.00229903
0.00203857
0.00179956
0.00158128
0.00138294
0.00120364
0.0010424
0.000898214
0.000769956
0.000656521
0.000556785
0.000469597
0.00039384
0.000328418
0.00027227
0.000224382
0.0001838
0.000149629
0.000121044
9.72872e-05
7.76747e-05
6.15962e-05
4.85093e-05
3.79749e-05
2.95966e-05
0.0826446
0.0825986
0.0825216
0.0824111
0.0822665
0.082088
0.0818765
0.0816329
0.0813579
0.0810525
0.0807178
0.0803547
0.0799644
0.0795479
0.0791063
0.0786407
0.0781524
0.0776424
0.077112
0.0765623
0.0759947
0.0754102
0.0748102
0.0741958
0.0735684
0.072929
0.0722788
0.0716192
0.0709513
0.0702762
0.069595
0.068909
0.0682191
0.0675264
0.0668321
0.0661369
0.065442
0.0647483
0.0640565
0.0633677
0.0626824
0.0620016
0.0613258
0.0606558
0.0599922
0.0593354
0.058686
0.0580445
0.0574112
0.0567866
0.0561708
0.0555643
0.0549671
0.0543794
0.0538015
0.0532333
0.0526748
0.0521261
0.0515872
0.0510579
0.0505382
0.0500279
0.0495268
0.0490348
0.0485517
0.0480772
0.0476112
0.0471532
0.0467032
0.0462608
0.0458258
0.0453977
0.0449765
0.0445616
0.0441528
0.0437499
0.0433524
0.04296
0.0425723
0.0421889
0.0418095
0.0414336
0.0410607
0.0406903
0.0403219
0.0399551
0.039589
0.0392233
0.0388571
0.0384898
0.0381207
0.037749
0.0373741
0.0369951
0.0366112
0.0362217
0.035826
0.0354232
0.0350127
0.0345938
0.034166
0.0337288
0.0332817
0.0328243
0.0323561
0.0318771
0.0313868
0.0308852
0.0303721
0.0298473
0.0293109
0.0287628
0.028203
0.0276317
0.027049
0.026455
0.02585
0.0252343
0.0246082
0.0239721
0.0233265
0.022672
0.0220091
0.0213385
0.020661
0.0199773
0.0192885
0.0185953
0.0178989
0.0172004
0.0165008
0.0158015
0.0151038
0.0144089
0.0137182
0.0130333
0.0123554
0.0116862
0.0110271
0.0103796
0.00974509
0.00912512
0.00852105
0.00793422
0.0073659
0.00681729
0.00628945
0.00578337
0.00529989
0.00483972
0.00440342
0.0039914
0.00360391
0.00324102
0.00290268
0.00258864
0.0022985
0.00203173
0.00178766
0.00156547
0.00136426
0.001183
0.00102063
0.000875953
0.000747794
0.000634928
0.000536113
0.000450126
0.00037576
0.000311845
0.00025726
0.00021094
0.000171888
0.000139178
0.000111962
8.94682e-05
7.10058e-05
5.59604e-05
4.38224e-05
3.413e-05
0.0857679
0.0857107
0.0856228
0.0855008
0.0853434
0.0851509
0.0849248
0.0846662
0.0843763
0.0840561
0.0837069
0.0833296
0.0829255
0.0824956
0.0820411
0.0815631
0.0810629
0.0805416
0.0800003
0.0794403
0.0788628
0.0782689
0.0776599
0.0770369
0.0764011
0.0757538
0.075096
0.0744291
0.073754
0.0730719
0.0723841
0.0716914
0.0709951
0.0702961
0.0695955
0.0688942
0.0681932
0.0674935
0.0667958
0.0661011
0.06541
0.0647234
0.064042
0.0633663
0.0626971
0.0620349
0.0613801
0.0607333
0.0600949
0.0594652
0.0588445
0.0582332
0.0576314
0.0570393
0.056457
0.0558846
0.0553222
0.0547698
0.0542273
0.0536947
0.0531718
0.0526586
0.0521549
0.0516604
0.051175
0.0506985
0.0502307
0.0497712
0.0493199
0.0488764
0.0484404
0.0480118
0.0475902
0.0471752
0.0467666
0.046364
0.0459672
0.0455757
0.0451892
0.0448073
0.0444297
0.0440558
0.0436853
0.0433175
0.0429521
0.0425885
0.042226
0.0418639
0.0415017
0.0411386
0.0407738
0.0404065
0.0400359
0.0396612
0.0392815
0.038896
0.0385039
0.0381043
0.0376965
0.0372797
0.0368533
0.0364166
0.0359691
0.0355103
0.0350397
0.034557
0.034062
0.0335542
0.0330335
0.0324997
0.0319527
0.0313925
0.0308188
0.0302318
0.0296316
0.0290182
0.0283918
0.0277526
0.0271009
0.026437
0.0257615
0.0250747
0.0243772
0.0236697
0.0229529
0.0222277
0.0214948
0.0207553
0.0200102
0.0192608
0.0185081
0.0177535
0.0169984
0.0162442
0.0154924
0.0147447
0.0140027
0.0132679
0.0125421
0.011827
0.0111243
0.0104356
0.00976268
0.00910708
0.00847034
0.00785393
0.0072592
0.00668737
0.00613957
0.00561674
0.00511968
0.00464902
0.00420521
0.0037885
0.00339896
0.0030365
0.00270078
0.00239137
0.0021076
0.00184868
0.00161366
0.00140148
0.00121099
0.0010409
0.000889926
0.000756694
0.000639825
0.000537937
0.00044966
0.000373656
0.000308636
0.000253372
0.000206706
0.00016756
0.000134941
0.000107944
8.57549e-05
6.7647e-05
5.30073e-05
4.12744e-05
0.0899456
0.0898783
0.089779
0.0896443
0.0894725
0.0892645
0.0890217
0.0887459
0.0884384
0.0881005
0.0877335
0.0873387
0.0869174
0.0864706
0.0859998
0.0855059
0.0849903
0.0844542
0.0838987
0.083325
0.0827342
0.0821276
0.0815064
0.0808716
0.0802245
0.0795663
0.0788979
0.0782206
0.0775355
0.0768438
0.0761464
0.0754444
0.0747389
0.074031
0.0733215
0.0726116
0.071902
0.0711938
0.0704878
0.0697847
0.0690855
0.0683908
0.0677014
0.0670179
0.066341
0.0656711
0.0650089
0.0643548
0.0637091
0.0630724
0.0624449
0.061827
0.0612187
0.0606204
0.0600321
0.0594541
0.0588862
0.0583285
0.0577811
0.0572437
0.0567164
0.0561991
0.0556914
0.0551934
0.0547048
0.0542253
0.0537547
0.0532929
0.0528394
0.0523941
0.0519567
0.0515269
0.0511044
0.0506888
0.05028
0.0498775
0.0494811
0.0490904
0.0487051
0.0483247
0.0479489
0.0475773
0.0472094
0.0468447
0.0464827
0.0461228
0.0457644
0.0454068
0.0450494
0.0446912
0.0443316
0.0439696
0.0436044
0.043235
0.0428605
0.0424799
0.0420923
0.0416967
0.0412922
0.040878
0.0404532
0.0400171
0.0395691
0.0391084
0.0386347
0.0381474
0.0376461
0.0371305
0.0366001
0.0360548
0.0354943
0.0349184
0.034327
0.0337199
0.0330972
0.0324588
0.0318048
0.0311354
0.0304507
0.029751
0.0290367
0.0283081
0.0275659
0.0268105
0.0260426
0.0252632
0.0244729
0.0236729
0.0228642
0.022048
0.0212255
0.0203982
0.0195676
0.0187352
0.0179028
0.017072
0.0162447
0.0154228
0.0146083
0.013803
0.0130091
0.0122285
0.0114633
0.0107152
0.00998639
0.00927853
0.00859338
0.00793253
0.00729747
0.00668949
0.0061097
0.00555905
0.00503827
0.00454786
0.00408811
0.00365912
0.0032607
0.00289249
0.00255391
0.00224418
0.00196233
0.00170725
0.00147768
0.00127223
0.00108946
0.000927805
0.000785707
0.00066157
0.000553802
0.00046084
0.000381166
0.000313325
0.000255941
0.000207725
0.000167486
0.000134131
0.000106679
8.42426e-05
6.60696e-05
5.14622e-05
0.0952127
0.0951351
0.0950234
0.0948747
0.0946872
0.0944619
0.0942008
0.0939057
0.0935784
0.0932203
0.0928329
0.0924178
0.0919762
0.0915095
0.091019
0.090506
0.0899718
0.0894174
0.0888442
0.0882534
0.087646
0.0870233
0.0863865
0.0857366
0.0850748
0.0844023
0.0837201
0.0830293
0.082331
0.0816264
0.0809164
0.0802021
0.0794846
0.0787647
0.0780436
0.0773221
0.0766012
0.0758818
0.0751647
0.0744508
0.0737408
0.0730356
0.0723357
0.071642
0.0709549
0.0702751
0.0696032
0.0689395
0.0682846
0.0676387
0.0670024
0.0663758
0.0657592
0.0651528
0.0645568
0.0639712
0.0633961
0.0628316
0.0622776
0.061734
0.0612008
0.0606779
0.0601651
0.0596622
0.059169
0.0586854
0.058211
0.0577457
0.0572891
0.0568411
0.0564012
0.0559694
0.0555452
0.0551283
0.0547186
0.0543156
0.053919
0.0535286
0.0531439
0.0527646
0.0523904
0.0520208
0.0516553
0.0512935
0.0509349
0.0505789
0.0502248
0.0498719
0.0495196
0.0491668
0.0488129
0.0484568
0.0480975
0.0477341
0.0473653
0.0469902
0.0466077
0.0462165
0.0458157
0.0454043
0.0449813
0.0445458
0.044097
0.0436341
0.0431565
0.0426637
0.042155
0.04163
0.0410882
0.0405292
0.0399527
0.0393582
0.0387457
0.0381147
0.0374652
0.0367971
0.0361102
0.0354047
0.0346805
0.0339378
0.0331769
0.0323981
0.0316018
0.0307886
0.029959
0.0291138
0.028254
0.0273803
0.026494
0.0255962
0.0246884
0.0237719
0.0228484
0.0219197
0.0209875
0.0200539
0.0191209
0.0181906
0.0172654
0.0163475
0.0154394
0.0145433
0.0136618
0.0127972
0.0119518
0.011128
0.010328
0.00955371
0.0088072
0.00809021
0.00740428
0.00675074
0.00613076
0.00554516
0.00499453
0.00447921
0.00399924
0.00355442
0.00314426
0.00276803
0.00242478
0.00211333
0.00183233
0.00158027
0.00135548
0.00115622
0.000980687
0.000827009
0.000693321
0.00057777
0.000478547
0.000393905
0.000322184
0.00026182
0.000211361
0.000169472
0.000134945
0.000106687
8.37609e-05
6.52899e-05
0.101608
0.101519
0.101395
0.101231
0.101026
0.100782
0.100501
0.100185
0.0998361
0.0994556
0.0990455
0.0986074
0.0981428
0.0976532
0.0971401
0.0966047
0.0960484
0.0954725
0.0948782
0.0942667
0.0936391
0.0929968
0.0923408
0.0916722
0.0909922
0.0903019
0.0896023
0.0888946
0.0881798
0.0874589
0.086733
0.0860032
0.0852703
0.0845355
0.0837996
0.0830635
0.0823283
0.0815948
0.0808639
0.0801363
0.0794129
0.0786944
0.0779815
0.0772749
0.0765753
0.0758831
0.0751991
0.0745236
0.0738571
0.0731999
0.0725526
0.0719153
0.0712883
0.0706719
0.0700661
0.0694711
0.068887
0.0683138
0.0677515
0.0672
0.0666593
0.0661292
0.0656096
0.0651003
0.0646011
0.0641119
0.0636323
0.0631621
0.0627011
0.062249
0.0618056
0.0613705
0.0609434
0.0605241
0.0601123
0.0597077
0.05931
0.0589188
0.0585339
0.0581549
0.0577814
0.057413
0.0570493
0.0566898
0.0563341
0.0559814
0.0556312
0.0552828
0.0549353
0.0545878
0.0542395
0.0538892
0.053536
0.0531785
0.0528157
0.0524463
0.0520689
0.0516823
0.0512853
0.0508767
0.0504553
0.0500201
0.0495702
0.0491046
0.0486225
0.0481233
0.0476063
0.0470706
0.0465159
0.0459415
0.0453468
0.0447315
0.0440951
0.0434372
0.0427574
0.0420556
0.0413315
0.0405849
0.0398157
0.0390241
0.03821
0.0373737
0.0365155
0.0356358
0.0347351
0.0338141
0.0328736
0.0319146
0.030938
0.0299452
0.0289375
0.0279166
0.026884
0.0258417
0.0247917
0.0237363
0.0226776
0.0216183
0.0205609
0.0195081
0.0184627
0.0174275
0.0164055
0.0153996
0.0144126
0.0134474
0.0125069
0.0115936
0.01071
0.00985866
0.00904151
0.00826046
0.00751715
0.00681289
0.00614867
0.00552518
0.00494277
0.00440146
0.00390093
0.00344056
0.00301942
0.00263631
0.00228979
0.00197818
0.00169964
0.00145216
0.00123366
0.00104195
0.00087483
0.000730092
0.000605564
0.000499138
0.000408797
0.000332632
0.000268862
0.000215842
0.000172077
0.000136208
0.000107062
8.35347e-05
0.109181
0.109081
0.108942
0.108761
0.108538
0.108274
0.107971
0.107632
0.107259
0.106854
0.106419
0.105955
0.105465
0.104949
0.10441
0.103849
0.103268
0.102667
0.102047
0.101412
0.10076
0.100094
0.0994153
0.0987243
0.0980222
0.0973104
0.0965897
0.0958613
0.0951263
0.0943856
0.0936403
0.0928914
0.0921398
0.0913866
0.0906326
0.0898789
0.0891262
0.0883756
0.0876277
0.0868836
0.0861438
0.0854093
0.0846807
0.0839586
0.0832438
0.0825368
0.0818381
0.0811484
0.0804679
0.0797972
0.0791366
0.0784864
0.0778468
0.0772182
0.0766006
0.0759942
0.075399
0.0748152
0.0742426
0.0736813
0.0731311
0.072592
0.0720638
0.0715463
0.0710393
0.0705427
0.0700561
0.0695794
0.0691123
0.0686544
0.0682057
0.0677657
0.0673341
0.0669108
0.0664953
0.0660876
0.0656871
0.0652937
0.064907
0.0645267
0.0641525
0.063784
0.0634207
0.0630623
0.0627081
0.0623577
0.0620103
0.0616652
0.0613216
0.0609786
0.0606351
0.06029
0.0599422
0.0595902
0.0592328
0.0588685
0.0584959
0.0581134
0.0577198
0.0573135
0.0568932
0.0564578
0.0560062
0.0555372
0.05505
0.0545436
0.0540172
0.0534699
0.052901
0.0523097
0.0516954
0.0510574
0.050395
0.0497078
0.0489951
0.0482566
0.0474917
0.0467003
0.045882
0.0450366
0.0441641
0.0432644
0.0423378
0.0413845
0.0404049
0.0393995
0.0383691
0.0373144
0.0362366
0.0351368
0.0340165
0.0328772
0.0317207
0.030549
0.0293644
0.0281693
0.0269661
0.0257579
0.0245473
0.0233377
0.0221323
0.0209344
0.0197475
0.0185752
0.0174209
0.0162882
0.0151806
0.0141014
0.0130539
0.0120411
0.0110659
0.0101307
0.00923791
0.00838936
0.00758661
0.00683081
0.00612273
0.00546271
0.00485069
0.00428623
0.00376849
0.00329627
0.00286805
0.00248203
0.00213615
0.00182812
0.00155554
0.00131587
0.00110649
0.000924784
0.000768143
0.000634021
0.000519963
0.000423638
0.000342857
0.000275589
0.000219982
0.000174343
0.000137205
0.000107174
0.11799
0.117877
0.117721
0.117522
0.117278
0.116992
0.116666
0.116302
0.115903
0.115471
0.115008
0.114515
0.113996
0.113451
0.112883
0.112293
0.111682
0.111052
0.110404
0.10974
0.10906
0.108367
0.107661
0.106943
0.106215
0.105477
0.104732
0.103978
0.103219
0.102455
0.101686
0.100915
0.100141
0.0993657
0.0985902
0.0978153
0.0970419
0.0962709
0.0955031
0.0947393
0.0939802
0.0932268
0.0924795
0.0917393
0.0910066
0.090282
0.0895662
0.0888597
0.0881628
0.087476
0.0867997
0.0861342
0.0854798
0.0848366
0.0842049
0.0835849
0.0829764
0.0823797
0.0817947
0.0812213
0.0806596
0.0801092
0.0795702
0.0790424
0.0785255
0.0780193
0.0775236
0.0770381
0.0765627
0.0760969
0.0756406
0.0751935
0.0747553
0.0743256
0.0739044
0.0734912
0.0730858
0.0726879
0.0722972
0.0719135
0.0715364
0.0711656
0.0708006
0.070441
0.0700864
0.0697361
0.0693896
0.069046
0.0687046
0.0683642
0.068024
0.0676825
0.0673386
0.0669907
0.0666374
0.0662771
0.065908
0.0655285
0.065137
0.0647319
0.0643117
0.0638751
0.0634207
0.0629474
0.0624541
0.0619395
0.0614028
0.0608428
0.0602587
0.0596495
0.0590143
0.0583522
0.0576624
0.0569441
0.0561967
0.0554193
0.0546114
0.0537724
0.0529019
0.0519993
0.0510645
0.0500972
0.0490973
0.0480649
0.0470003
0.0459038
0.0447759
0.0436174
0.0424291
0.0412123
0.0399683
0.0386987
0.0374052
0.0360901
0.0347556
0.0334044
0.0320392
0.0306632
0.0292798
0.0278924
0.0265048
0.025121
0.0237451
0.0223812
0.0210336
0.0197066
0.0184045
0.0171316
0.0158918
0.0146891
0.0135272
0.0124094
0.0113389
0.0103182
0.00934958
0.00843486
0.00757534
0.00677183
0.00602464
0.00533359
0.00469801
0.00411678
0.00358835
0.0031108
0.00268186
0.00229898
0.00195937
0.00166009
0.00139809
0.00117024
0.000973434
0.000804594
0.000660751
0.000539058
0.000436833
0.000351576
0.000280991
0.000222977
0.0001757
0.00013741
0.128102
0.127973
0.127799
0.127579
0.127312
0.127001
0.126649
0.126257
0.125829
0.125366
0.124872
0.124347
0.123795
0.123218
0.122616
0.121992
0.121348
0.120684
0.120003
0.119306
0.118594
0.117868
0.117131
0.116382
0.115623
0.114855
0.11408
0.113298
0.112511
0.111718
0.110923
0.110124
0.109324
0.108523
0.107723
0.106923
0.106126
0.105331
0.10454
0.103753
0.102972
0.102196
0.101428
0.100666
0.0999128
0.099168
0.0984323
0.0977063
0.0969904
0.096285
0.0955905
0.0949071
0.0942353
0.0935751
0.0929269
0.0922906
0.0916664
0.0910543
0.0904543
0.0898663
0.0892904
0.0887263
0.0881739
0.087633
0.0871035
0.0865851
0.0860776
0.0855806
0.0850941
0.0846176
0.0841509
0.0836938
0.083246
0.0828072
0.0823771
0.0819555
0.0815421
0.0811367
0.0807391
0.0803488
0.0799657
0.0795894
0.0792197
0.0788559
0.0784978
0.0781448
0.0777961
0.0774512
0.077109
0.0767686
0.0764289
0.0760884
0.0757459
0.0753997
0.0750482
0.0746895
0.0743217
0.0739431
0.0735518
0.0731459
0.072724
0.0722844
0.0718257
0.0713466
0.0708457
0.0703218
0.0697736
0.0691998
0.0685994
0.0679712
0.0673141
0.0666269
0.0659087
0.0651584
0.0643749
0.0635575
0.0627051
0.061817
0.0608924
0.0599306
0.0589311
0.0578933
0.056817
0.0557019
0.0545481
0.0533556
0.0521248
0.0508562
0.0495506
0.0482089
0.0468323
0.0454225
0.0439813
0.0425106
0.0410131
0.0394913
0.0379484
0.0363877
0.034813
0.0332282
0.0316375
0.0300455
0.0284569
0.0268768
0.02531
0.0237618
0.0222375
0.0207421
0.0192808
0.0178584
0.0164797
0.015149
0.0138704
0.0126474
0.0114833
0.0103805
0.00934119
0.0083667
0.0074579
0.006615
0.00583763
0.00512482
0.00447507
0.00388638
0.0033563
0.00288199
0.00246032
0.00208788
0.00176112
0.00147635
0.00122987
0.00101801
0.000837173
0.000683913
0.000554952
0.000447222
0.000357896
0.000284371
0.000224366
0.000175687
0.139588
0.139442
0.139247
0.139003
0.13871
0.138371
0.137988
0.137565
0.137104
0.136607
0.136077
0.135516
0.134927
0.134311
0.133671
0.133008
0.132325
0.131623
0.130903
0.130168
0.129418
0.128656
0.127881
0.127096
0.126302
0.125499
0.12469
0.123874
0.123054
0.122229
0.121402
0.120572
0.119742
0.118912
0.118082
0.117254
0.116429
0.115607
0.114789
0.113976
0.113169
0.112369
0.111576
0.11079
0.110013
0.109245
0.108487
0.107739
0.107001
0.106274
0.105559
0.104855
0.104163
0.103483
0.102815
0.10216
0.101517
0.100887
0.100269
0.0996631
0.0990699
0.098489
0.09792
0.097363
0.0968176
0.0962836
0.0957608
0.095249
0.0947478
0.094257
0.0937764
0.0933056
0.0928444
0.0923926
0.0919498
0.0915159
0.0910906
0.0906737
0.0902649
0.0898641
0.0894709
0.0890851
0.0887063
0.0883343
0.0879685
0.0876085
0.0872536
0.0869032
0.0865563
0.0862118
0.0858687
0.0855255
0.0851807
0.0848325
0.0844791
0.0841185
0.0837487
0.0833677
0.0829733
0.0825638
0.0821373
0.0816922
0.0812269
0.0807398
0.0802295
0.0796943
0.079133
0.0785441
0.0779262
0.077278
0.076598
0.075885
0.0751376
0.0743546
0.0735347
0.0726766
0.0717792
0.0708415
0.0698621
0.0688403
0.0677751
0.0666657
0.0655114
0.0643119
0.0630666
0.0617755
0.0604385
0.0590559
0.0576282
0.0561562
0.0546409
0.0530836
0.0514862
0.0498506
0.0481792
0.0464749
0.0447409
0.0429808
0.0411985
0.0393985
0.0375854
0.0357644
0.033941
0.0321207
0.0303096
0.0285137
0.0267393
0.0249926
0.0232798
0.021607
0.0199801
0.0184047
0.016886
0.0154287
0.0140371
0.0127147
0.0114645
0.0102889
0.00918922
0.00816638
0.0072204
0.0063506
0.00555563
0.00483348
0.00418158
0.00359685
0.00307575
0.00261444
0.00220878
0.0018545
0.00154722
0.00128257
0.00105624
0.00086407
0.000702088
0.000566548
0.000453986
0.000361194
0.000285349
0.000223723
0.152528
0.152363
0.152143
0.151871
0.151548
0.151177
0.150759
0.1503
0.1498
0.149263
0.148691
0.148088
0.147455
0.146796
0.146111
0.145404
0.144676
0.143929
0.143164
0.142385
0.141591
0.140785
0.139968
0.139141
0.138306
0.137463
0.136614
0.13576
0.134901
0.13404
0.133176
0.132312
0.131447
0.130583
0.12972
0.12886
0.128003
0.127151
0.126303
0.12546
0.124625
0.123796
0.122975
0.122162
0.121359
0.120564
0.11978
0.119007
0.118244
0.117493
0.116754
0.116026
0.115311
0.114608
0.113917
0.11324
0.112575
0.111923
0.111284
0.110657
0.110043
0.109441
0.108852
0.108275
0.107709
0.107156
0.106613
0.106082
0.105562
0.105053
0.104553
0.104064
0.103585
0.103115
0.102655
0.102204
0.101761
0.101328
0.100903
0.100486
0.100077
0.0996768
0.0992837
0.0988979
0.0985191
0.0981467
0.0977802
0.0974188
0.0970618
0.096708
0.0963562
0.0960049
0.0956526
0.0952974
0.0949371
0.0945697
0.0941931
0.093805
0.0934032
0.0929858
0.0925509
0.0920967
0.0916214
0.0911233
0.0906008
0.090052
0.0894755
0.0888696
0.0882326
0.087563
0.0868592
0.0861195
0.0853425
0.0845265
0.0836699
0.0827713
0.0818291
0.080842
0.0798084
0.0787269
0.0775965
0.0764158
0.0751839
0.0738998
0.0725629
0.0711726
0.0697285
0.0682305
0.0666787
0.0650736
0.0634159
0.0617068
0.0599477
0.0581406
0.0562877
0.0543918
0.0524562
0.0504846
0.0484812
0.0464508
0.0443984
0.0423298
0.040251
0.0381686
0.0360892
0.0340201
0.0319686
0.029942
0.0279478
0.0259936
0.0240864
0.0222334
0.0204411
0.0187157
0.0170626
0.0154869
0.0139925
0.0125828
0.0112604
0.0100266
0.0088823
0.00782719
0.0068602
0.00597945
0.00518231
0.00446549
0.00382512
0.00325687
0.00275603
0.00231765
0.00193661
0.00160776
0.00132598
0.00108628
0.000883863
0.000714201
0.000573071
0.000456547
0.000361155
0.000283521
0.16701
0.166822
0.166574
0.166269
0.165911
0.1655
0.165042
0.164538
0.163993
0.163408
0.162788
0.162134
0.16145
0.160738
0.160001
0.159241
0.15846
0.15766
0.156844
0.156013
0.155169
0.154312
0.153446
0.152571
0.151688
0.150799
0.149905
0.149006
0.148105
0.147202
0.146297
0.145393
0.144489
0.143587
0.142687
0.141791
0.140898
0.140011
0.139129
0.138254
0.137386
0.136526
0.135673
0.13483
0.133997
0.133173
0.13236
0.131558
0.130767
0.129988
0.129221
0.128467
0.127724
0.126995
0.126278
0.125574
0.124883
0.124206
0.12354
0.122888
0.122249
0.121622
0.121008
0.120405
0.119815
0.119237
0.11867
0.118114
0.117569
0.117035
0.116512
0.115998
0.115495
0.115001
0.114517
0.114043
0.113577
0.11312
0.112673
0.112234
0.111803
0.111381
0.110966
0.11056
0.110161
0.10977
0.109385
0.109006
0.108632
0.108262
0.107895
0.107529
0.107162
0.106793
0.106419
0.106039
0.105649
0.105248
0.104833
0.104402
0.103953
0.103485
0.102996
0.102483
0.101944
0.101378
0.100784
0.100158
0.0995002
0.0988076
0.0980786
0.0973114
0.0965041
0.0956549
0.0947619
0.0938232
0.0928371
0.0918015
0.0907149
0.0895754
0.0883814
0.0871312
0.0858235
0.0844568
0.0830301
0.0815422
0.0799923
0.07838
0.0767047
0.0749666
0.0731661
0.0713038
0.0693808
0.0673989
0.0653601
0.0632669
0.0611226
0.0589309
0.0566961
0.0544232
0.0521177
0.0497856
0.0474338
0.0450694
0.0427001
0.0403341
0.0379797
0.0356458
0.0333412
0.0310747
0.0288552
0.0266913
0.0245912
0.0225626
0.0206127
0.0187479
0.0169738
0.015295
0.0137152
0.0122369
0.0108617
0.00959004
0.00842133
0.00735393
0.00638527
0.00551196
0.00472983
0.00403409
0.00341945
0.00288022
0.00241051
0.00200426
0.00165546
0.00135817
0.00110666
0.000895474
0.000719506
0.000573982
0.000454656
0.000357386
0.183127
0.182912
0.18263
0.182287
0.181885
0.181427
0.180919
0.180362
0.179761
0.179118
0.178438
0.177724
0.176978
0.176203
0.175403
0.17458
0.173737
0.172875
0.171998
0.171107
0.170203
0.169289
0.168366
0.167435
0.166498
0.165556
0.16461
0.163662
0.162712
0.161761
0.16081
0.15986
0.158913
0.157968
0.157027
0.15609
0.155159
0.154233
0.153314
0.152402
0.151497
0.150602
0.149715
0.148838
0.147971
0.147114
0.146268
0.145434
0.144611
0.1438
0.143002
0.142216
0.141442
0.140682
0.139934
0.139199
0.138478
0.137769
0.137073
0.13639
0.135719
0.135062
0.134416
0.133783
0.133161
0.132552
0.131953
0.131366
0.13079
0.130225
0.12967
0.129126
0.128591
0.128066
0.127551
0.127045
0.126548
0.126061
0.125583
0.125113
0.124653
0.124201
0.123757
0.123322
0.122896
0.122477
0.122065
0.12166
0.12126
0.120866
0.120475
0.120086
0.119696
0.119305
0.11891
0.118508
0.118097
0.117675
0.11724
0.116789
0.116321
0.115833
0.115323
0.11479
0.114231
0.113644
0.113027
0.112379
0.111697
0.110979
0.110223
0.109427
0.108589