/*--------------------------------*- C++ -*----------------------------------*\
| =========                 |                                                 |
| \\      /  F ield         | OpenFOAM: The Open Source CFD Toolbox           |
|  \\    /   O peration     | Version:  4.1                                   |
|   \\  /    A nd           | Web:      www.OpenFOAM.org                      |
|    \\/     M anipulation  |                                                 |
\*---------------------------------------------------------------------------*/
FoamFile
{
    version     2.0;
    format      ascii;
    class       volScalarField;
    location    "0.03";
    object      T;
}
// * * * * * * * * * * * * * * * * * * * * * * * * * * * * * * * * * * * * * //

dimensions      [0 0 0 1 0 0 0];

internalField   nonuniform List<scalar> 
12225
(
1.11552
1.23317
1.29917
1.34126
1.36974
1.38851
1.40119
1.41004
1.41642
1.42116
1.42479
1.42763
1.4299
1.43177
1.4333
1.43469
1.43581
1.43518
0.860947
0.707839
0.632408
0.594821
0.576427
0.569644
0.569414
0.572758
0.577971
0.584077
0.590513
0.596954
0.603214
0.609181
0.61481
0.619994
0.624958
0.628865
1.03458
1.08006
1.10414
1.11423
1.11556
1.11189
1.10559
1.09802
1.08996
1.08185
1.07398
1.06647
1.05942
1.05284
1.04677
1.04114
1.0362
1.0315
1.00165
0.998855
0.992981
0.988432
0.986044
0.98539
0.98593
0.9872
0.988859
0.990683
0.992533
0.994323
0.995998
0.997539
0.998939
1.00018
1.0013
1.00234
1.00023
1.00039
1.00026
1.00043
1.00067
1.0008
1.00084
1.0008
1.00072
1.00062
1.00051
1.00042
1.00033
1.00027
1.00023
1.00019
1.00021
1.00021
0.999584
0.999244
0.998899
0.998714
0.99862
0.998535
0.998453
0.99839
0.998342
0.998302
0.998271
0.998244
0.99822
0.998204
0.998189
0.998174
0.998175
0.998153
0.999929
1.00011
1.00016
1.00019
1.00023
1.00025
1.00026
1.00026
1.00026
1.00026
1.00026
1.00025
1.00024
1.00023
1.00022
1.00021
1.00021
1.00019
0.999971
1.00007
1.00006
1.00002
1.00001
1.00001
1.00001
1
1
1
1
1.00001
1.00002
1.00002
1.00002
1.00003
1.00003
1.00003
0.999979
1.00004
1.00003
1.00002
1.00002
1.00002
1.00002
1.00002
1.00002
1.00003
1.00003
1.00003
1.00003
1.00003
1.00003
1.00003
1.00003
1.00003
0.999978
1.00002
1.00001
0.999998
0.999998
1
0.999999
0.999997
0.999996
0.999997
0.999995
0.999996
1
0.999999
0.999995
1
0.999995
0.999997
0.999985
1.00001
1.00001
1
1
0.999997
0.999997
0.999997
1
1
1
0.999998
0.999997
1
1
1
0.999997
1
0.999988
1.00001
1.00001
0.999999
0.999997
0.999999
0.999998
0.999999
0.999998
0.999996
0.999996
0.999997
0.999999
0.999999
1
1
0.999996
1
0.999989
1.00001
1.00001
1
0.999999
0.999999
1
1
0.999999
0.999998
1
0.999998
0.999999
1
0.999999
1
0.999993
0.999997
0.999991
1
1.00001
1.00001
1
1
0.999997
0.999998
0.999999
0.999998
0.999996
0.999998
0.999997
0.999997
0.999997
0.999997
0.999994
1
0.999993
1
1.00001
1.00001
1
1
0.999998
0.999999
0.999999
0.999999
1
0.999999
0.999999
1
0.999995
0.999998
0.999992
0.999998
0.999994
1
1.00001
1
1
1
1
0.999999
0.999999
0.999997
0.999997
1
1
1
0.999999
0.999998
0.999993
0.999999
0.999993
1
1
1
1
1
1
1
0.999999
1
1
0.999999
0.999998
0.999999
1
1
0.999997
0.999999
0.999995
1
1
1.00001
1.00001
1.00001
1
1
1
1
1
1
1.00001
1.00001
1
1
0.999997
1
0.999995
1
1
1
1
1
1.00001
1
0.999999
1
1
1
0.999997
0.999995
0.999999
0.999997
0.999991
0.999995
0.999992
1
1
1
1
1
1.00001
1.00001
1.00001
1
1.00001
1.00001
1.00001
1.00001
1.00001
1.00001
1.00001
1.00002
0.999991
0.999999
1.00001
1
0.999996
0.999991
0.999991
0.999988
0.999986
0.999985
0.999981
0.999979
0.999975
0.999972
0.999972
0.999972
0.999964
0.999966
0.999988
1
1.00001
1.00001
1.00002
1.00002
1.00003
1.00004
1.00004
1.00005
1.00006
1.00006
1.00007
1.00007
1.00008
1.00008
1.00008
1.00009
0.999982
1
1
0.999974
0.999943
0.999921
0.9999
0.999878
0.99986
0.999842
0.999828
0.999815
0.999802
0.999795
0.999786
0.999779
0.99977
0.999767
0.999965
1.00007
1.00018
1.00024
1.0003
1.00037
1.00043
1.00049
1.00054
1.00058
1.00062
1.00065
1.00067
1.00069
1.00071
1.00072
1.00073
1.00074
0.999753
0.999568
0.999366
0.999131
0.998913
0.998704
0.998509
0.998342
0.998201
0.998088
0.998002
0.997936
0.997889
0.997856
0.997838
0.997829
0.997822
0.997814
0.999992
1.00043
1.00095
1.00167
1.00247
1.00316
1.00368
1.00405
1.00429
1.00442
1.00447
1.00446
1.0044
1.00432
1.00421
1.00409
1.00396
1.00386
0.999945
0.996247
0.990161
0.98452
0.980273
0.977358
0.975527
0.97452
0.974115
0.974128
0.974432
0.974931
0.975556
0.976259
0.977006
0.977763
0.978549
0.979195
1.0214
1.05634
1.0798
1.09471
1.10362
1.10848
1.11069
1.11118
1.11056
1.10922
1.10743
1.10537
1.10317
1.1009
1.09862
1.09638
1.09417
1.09224
0.922802
0.82784
0.774466
0.743959
0.725618
0.714657
0.708441
0.705217
0.70388
0.70374
0.704359
0.705454
0.70684
0.708395
0.710039
0.711701
0.713398
0.714943
1.06291
1.12901
1.16726
1.19166
1.20826
1.21975
1.22781
1.23361
1.2379
1.24113
1.24365
1.24564
1.24725
1.24858
1.24971
1.25063
1.25155
1.25214
-4.55097e-24
-1.39198e-24
-2.5995e-25
-4.00813e-25
9.53676e-27
2.00077e-25
4.49978e-25
7.0132e-25
8.56921e-25
9.01756e-25
8.66988e-25
7.80159e-25
6.61904e-25
5.30904e-25
4.03721e-25
2.91941e-25
2.0127e-25
1.32467e-25
8.31067e-26
4.92584e-26
2.67299e-26
1.18387e-26
1.79824e-27
-5.21077e-27
-1.02033e-26
-1.36676e-26
-1.58357e-26
-1.68677e-26
-1.6938e-26
-1.6251e-26
-1.50237e-26
-1.34618e-26
-1.17411e-26
-9.99942e-27
-8.33508e-27
-6.81116e-27
-5.46197e-27
-4.30031e-27
-3.32392e-27
-2.52102e-27
-1.87435e-27
-1.36412e-27
-9.69983e-28
-6.72251e-28
-4.52627e-28
-2.94614e-28
-1.83941e-28
-1.09822e-28
-6.84557e-29
-6.80972e-29
-1.21504e-28
-1.7108e-28
1.78153e-28
2.24125e-27
8.76922e-27
2.18938e-26
3.04773e-26
-3.04524e-26
-3.69399e-25
-1.45753e-24
-3.96455e-24
-7.7379e-24
-7.82909e-24
1.63876e-23
1.24512e-22
4.52759e-22
1.2463e-21
2.79917e-21
5.05096e-21
6.25637e-21
-4.32147e-22
-3.44427e-20
-1.42089e-19
-4.20387e-19
-1.05011e-18
-2.32812e-18
-4.6663e-18
-8.47878e-18
-1.38003e-17
-1.93555e-17
-2.06328e-17
-6.32948e-18
4.7598e-17
1.86979e-16
4.91732e-16
1.09015e-15
2.17097e-15
3.98377e-15
6.80993e-15
1.08739e-14
1.61477e-14
2.19815e-14
2.64704e-14
2.54489e-14
1.10025e-14
-3.05925e-14
-1.21503e-13
-2.95369e-13
-6.00176e-13
-1.0997e-12
-1.87052e-12
-2.98673e-12
-4.46999e-12
-6.28992e-12
-8.30857e-12
-1.02363e-11
-1.15886e-11
-1.1655e-11
-9.49081e-12
-3.94229e-12
6.28885e-12
2.25374e-11
4.60282e-11
7.77032e-11
1.18039e-10
1.66881e-10
2.23318e-10
2.85617e-10
3.51246e-10
4.16985e-10
4.79119e-10
5.33707e-10
5.76894e-10
6.05243e-10
6.16031e-10
6.07504e-10
5.79048e-10
5.31267e-10
4.65952e-10
3.8595e-10
2.94935e-10
1.97144e-10
9.70736e-11
-8.34826e-13
-9.24886e-11
-1.74392e-10
-2.43823e-10
-2.98938e-10
-3.38796e-10
-3.63266e-10
-3.7295e-10
-3.69125e-10
-3.53674e-10
-3.28892e-10
-2.97167e-10
-2.60715e-10
-2.21704e-10
-1.8233e-10
-1.44454e-10
-1.09398e-10
-7.80229e-11
-5.1137e-11
-2.90178e-11
-1.15177e-11
1.51455e-12
1.05662e-11
1.62732e-11
1.91968e-11
1.99832e-11
1.9265e-11
1.75609e-11
1.52991e-11
1.28272e-11
1.04001e-11
8.07519e-12
5.99827e-12
4.32251e-12
3.03268e-12
2.07123e-12
1.37565e-12
8.86831e-13
5.53066e-13
3.31784e-13
1.89528e-13
1.01263e-13
4.87137e-14
1.9472e-14
4.82605e-15
-5.18651e-16
-3.55429e-16
4.07826e-23
-3.66068e-23
2.77336e-24
-3.27947e-24
-1.77216e-23
-3.91196e-23
-5.96925e-23
-7.29419e-23
-7.71897e-23
-7.44421e-23
-6.7481e-23
-5.82791e-23
-4.81394e-23
-3.8091e-23
-2.89256e-23
-2.11219e-23
-1.48565e-23
-1.00746e-23
-6.58217e-24
-4.12418e-24
-2.44078e-24
-1.3016e-24
-5.24129e-25
2.07744e-26
4.13772e-25
6.9906e-25
8.98582e-25
1.02406e-24
1.08462e-24
1.09014e-24
1.05183e-24
9.81369e-25
8.89903e-25
7.87178e-25
6.81082e-25
5.7754e-25
4.80634e-25
3.92884e-25
3.15565e-25
2.49028e-25
1.92986e-25
1.4673e-25
1.09312e-25
7.96583e-26
5.66588e-26
3.92271e-26
2.63378e-26
1.70492e-26
1.0516e-26
6.04106e-27
3.29193e-27
2.9169e-27
7.50954e-27
2.09429e-26
3.7917e-26
2.94768e-27
-2.92889e-25
-1.37043e-24
-4.03334e-24
-8.15977e-24
-7.63019e-24
2.38789e-23
1.62405e-22
5.73759e-22
1.50936e-21
3.05635e-21
4.10087e-21
-6.78229e-22
-2.7911e-20
-1.19658e-19
-3.66528e-19
-9.35071e-19
-2.07403e-18
-4.02516e-18
-6.66607e-18
-8.54209e-18
-4.68791e-18
1.7671e-17
8.66861e-17
2.57719e-16
6.29279e-16
1.3597e-15
2.67437e-15
4.84108e-15
8.07122e-15
1.22762e-14
1.6573e-14
1.8396e-14
1.20491e-14
-1.34528e-14
-7.73066e-14
-2.10426e-13
-4.58891e-13
-8.85935e-13
-1.56991e-12
-2.59398e-12
-4.02125e-12
-5.84641e-12
-7.91241e-12
-9.77892e-12
-1.05291e-11
-8.50455e-12
-1.17762e-12
1.483e-11
4.37583e-11
9.04172e-11
1.59649e-10
2.55506e-10
3.80181e-10
5.32773e-10
7.08049e-10
8.95384e-10
1.07812e-09
1.23352e-09
1.33348e-09
1.34607e-09
1.23783e-09
9.76688e-10
5.35189e-10
-1.06348e-10
-9.57049e-10
-2.01351e-09
-3.25886e-09
-4.66296e-09
-6.18387e-09
-7.7705e-09
-9.36601e-09
-1.09119e-08
-1.23521e-08
-1.36367e-08
-1.47248e-08
-1.55869e-08
-1.62056e-08
-1.65749e-08
-1.66998e-08
-1.65949e-08
-1.62833e-08
-1.57933e-08
-1.51558e-08
-1.44019e-08
-1.356e-08
-1.26564e-08
-1.17148e-08
-1.07567e-08
-9.79916e-09
-8.85456e-09
-7.93275e-09
-7.04398e-09
-6.19638e-09
-5.3954e-09
-4.64543e-09
-3.9532e-09
-3.32076e-09
-2.74921e-09
-2.24221e-09
-1.79961e-09
-1.41834e-09
-1.09713e-09
-8.31178e-10
-6.15525e-10
-4.44879e-10
-3.1201e-10
-2.12023e-10
-1.39297e-10
-8.7182e-11
-5.11573e-11
-2.77222e-11
-1.3257e-11
-4.84443e-12
-3.41505e-13
1.75586e-12
2.46146e-12
2.42921e-12
2.05938e-12
1.5817e-12
1.11547e-12
7.16866e-13
4.01076e-13
1.79077e-13
2.67636e-14
7.90576e-22
2.56383e-23
7.68694e-23
6.90342e-22
1.67175e-21
2.61421e-21
3.24592e-21
3.48357e-21
3.39256e-21
3.09806e-21
2.70734e-21
2.28406e-21
1.86411e-21
1.47247e-21
1.12672e-21
8.36092e-22
6.02322e-22
4.21538e-22
2.86573e-22
1.88888e-22
1.19945e-22
7.20487e-23
3.88198e-23
1.54013e-23
-1.55916e-24
-1.41336e-23
-2.34657e-23
-3.01448e-23
-3.45063e-23
-3.68201e-23
-3.7375e-23
-3.64942e-23
-3.45181e-23
-3.17776e-23
-2.85716e-23
-2.51521e-23
-2.17183e-23
-1.84178e-23
-1.53511e-23
-1.25799e-23
-1.01349e-23
-8.02358e-24
-6.23683e-24
-4.75442e-24
-3.54901e-24
-2.58913e-24
-1.8416e-24
-1.27327e-24
-8.52466e-25
-5.49865e-25
-3.38298e-25
-1.9045e-25
-7.50461e-26
3.87906e-26
1.31489e-25
-5.14457e-26
-1.42797e-24
-6.09985e-24
-1.65772e-23
-2.88548e-23
-7.84086e-24
1.7273e-22
8.30566e-22
2.52917e-21
5.70414e-21
8.77307e-21
2.3578e-21
-4.42806e-20
-2.08246e-19
-6.44956e-19
-1.5924e-18
-3.23439e-18
-5.14202e-18
-4.7123e-18
6.41707e-18
4.94587e-17
1.70611e-16
4.58436e-16
1.06204e-15
2.1946e-15
4.08516e-15
6.8053e-15
9.84365e-15
1.12364e-14
6.00514e-15
-1.63509e-14
-7.5427e-14
-2.04277e-13
-4.53466e-13
-8.92263e-13
-1.60215e-12
-2.65472e-12
-4.06224e-12
-5.68529e-12
-7.07891e-12
-7.25946e-12
-4.38072e-12
4.67372e-12
2.47358e-11
6.27079e-11
1.27496e-10
2.28576e-10
3.74146e-10
5.68523e-10
8.07957e-10
1.07584e-09
1.33765e-09
1.5366e-09
1.59098e-09
1.39446e-09
8.20186e-10
-2.70663e-10
-2.01597e-09
-4.53618e-09
-7.91578e-09
-1.2185e-08
-1.7304e-08
-2.31528e-08
-2.95281e-08
-3.61489e-08
-4.26716e-08
-4.87121e-08
-5.38755e-08
-5.77877e-08
-6.01273e-08
-6.06538e-08
-5.9229e-08
-5.58304e-08
-5.05558e-08
-4.36173e-08
-3.53223e-08
-2.60521e-08
-1.62347e-08
-6.31516e-09
3.27528e-09
1.2148e-08
1.99782e-08
2.65172e-08
3.16041e-08
3.51616e-08
3.71883e-08
3.77569e-08
3.70094e-08
3.51443e-08
3.23915e-08
2.89755e-08
2.51185e-08
2.10562e-08
1.70057e-08
1.3143e-08
9.58332e-09
6.43626e-09
3.77801e-09
1.61648e-09
-4.91302e-11
-1.25062e-09
-2.04593e-09
-2.49144e-09
-2.65547e-09
-2.61032e-09
-2.42038e-09
-2.14178e-09
-1.82067e-09
-1.49454e-09
-1.1864e-09
-9.11209e-10
-6.78779e-10
-4.91143e-10
-3.45306e-10
-2.35751e-10
-1.56046e-10
-9.98333e-11
-6.14094e-11
-3.59847e-11
-1.97586e-11
-9.83654e-12
-4.12894e-12
-1.1484e-12
1.07535e-13
2.89464e-13
-2.81727e-22
5.72378e-21
-6.97167e-21
-3.93298e-20
-7.20193e-20
-9.4062e-20
-1.03643e-19
-1.02697e-19
-9.48308e-20
-8.35769e-20
-7.13687e-20
-5.94293e-20
-4.8307e-20
-3.83171e-20
-2.96611e-20
-2.2417e-20
-1.65503e-20
-1.19421e-20
-8.42295e-21
-5.8035e-21
-3.89704e-21
-2.53307e-21
-1.56511e-21
-8.74776e-22
-3.73152e-22
8.93594e-25
2.8536e-22
5.01635e-22
6.61127e-22
7.70562e-22
8.35329e-22
8.61071e-22
8.54083e-22
8.21084e-22
7.68781e-22
7.03434e-22
6.30546e-22
5.54692e-22
4.79469e-22
4.07543e-22
3.40757e-22
2.8026e-22
2.2665e-22
1.80101e-22
1.40474e-22
1.074e-22
8.03546e-23
5.87092e-23
4.17785e-23
2.88599e-23
1.92678e-23
1.23698e-23
7.62524e-24
4.60003e-24
2.84402e-24
1.31884e-24
-3.07695e-24
-1.75898e-23
-5.19423e-23
-9.67827e-23
-4.38934e-23
5.07532e-22
2.54983e-21
7.6992e-21
1.64963e-20
2.11555e-20
-1.45089e-20
-1.96537e-19
-7.59645e-19
-2.08415e-18
-4.45847e-18
-7.04362e-18
-4.92659e-18
1.75634e-17
9.93952e-17
3.21644e-16
8.25912e-16
1.80738e-15
3.41975e-15
5.46347e-15
6.63396e-15
3.00049e-15
-1.46659e-14
-6.49627e-14
-1.8101e-13
-4.15034e-13
-8.38177e-13
-1.52723e-12
-2.5242e-12
-3.74792e-12
-4.831e-12
-4.85437e-12
-1.96069e-12
7.14388e-12
2.77339e-11
6.74949e-11
1.36541e-10
2.4653e-10
4.0815e-10
6.25893e-10
8.88296e-10
1.15303e-09
1.33936e-09
1.31261e-09
8.75439e-10
-2.3353e-10
-2.32884e-09
-5.75173e-09
-1.08263e-08
-1.77995e-08
-2.67697e-08
-3.76113e-08
-4.99073e-08
-6.29016e-08
-7.54823e-08
-8.62054e-08
-9.33653e-08
-9.51066e-08
-8.95732e-08
-7.50791e-08
-5.02798e-08
-1.43309e-08
3.2991e-08
9.12144e-08
1.59157e-07
2.34973e-07
3.16267e-07
4.0026e-07
4.83987e-07
5.64491e-07
6.39013e-07
7.05176e-07
7.6108e-07
8.05374e-07
8.37254e-07
8.56478e-07
8.63383e-07
8.58748e-07
8.43691e-07
8.19533e-07
7.87638e-07
7.49362e-07
7.06067e-07
6.59097e-07
6.09695e-07
5.58851e-07
5.07372e-07
4.56118e-07
4.05863e-07
3.57284e-07
3.10814e-07
2.67021e-07
2.26349e-07
1.8905e-07
1.55402e-07
1.25588e-07
9.95627e-08
7.73296e-08
5.87531e-08
4.35293e-08
3.13583e-08
2.18712e-08
1.46808e-08
9.41334e-09
5.67693e-09
3.13005e-09
1.48394e-09
4.86811e-10
-6.58941e-11
-3.30218e-10
-4.19052e-10
-4.10015e-10
-3.5363e-10
-2.80693e-10
-2.08428e-10
-1.45196e-10
-9.41946e-11
-5.55075e-11
-2.86856e-11
-9.72704e-12
-1.17474e-19
-4.3383e-19
2.06029e-19
1.17542e-18
1.8807e-18
2.21904e-18
2.27571e-18
2.1463e-18
1.91719e-18
1.65315e-18
1.39295e-18
1.15305e-18
9.38251e-19
7.49882e-19
5.88382e-19
4.53186e-19
3.42702e-19
2.54502e-19
1.85642e-19
1.32992e-19
9.35025e-20
6.43685e-20
4.31203e-20
2.76707e-20
1.63429e-20
7.87592e-21
1.39588e-21
-3.64924e-21
-7.57837e-21
-1.05677e-20
-1.2723e-20
-1.41272e-20
-1.48643e-20
-1.5027e-20
-1.47159e-20
-1.40339e-20
-1.30804e-20
-1.19461e-20
-1.07102e-20
-9.43796e-21
-8.18145e-21
-6.9796e-21
-5.86002e-21
-4.84076e-21
-3.932e-21
-3.13769e-21
-2.45694e-21
-1.88508e-21
-1.41461e-21
-1.036e-21
-7.3847e-22
-5.10528e-22
-3.40613e-22
-2.17492e-22
-1.30825e-22
-7.26937e-23
-4.17878e-23
-5.11958e-23
-1.31463e-22
-2.88434e-22
-3.06301e-22
7.86808e-22
5.63643e-21
1.89187e-20
4.30624e-20
5.85437e-20
-3.10446e-20
-5.07803e-19
-1.9691e-18
-5.25082e-18
-1.04308e-17
-1.32818e-17
3.65185e-18
8.85194e-17
3.4544e-16
9.51321e-16
2.10798e-15
3.79235e-15
5.03438e-15
2.28483e-15
-1.36717e-14
-6.26123e-14
-1.80983e-13
-4.26189e-13
-8.71218e-13
-1.57386e-12
-2.49393e-12
-3.3205e-12
-3.16526e-12
-8.88104e-14
9.52836e-12
3.16589e-11
7.50577e-11
1.50898e-10
2.70727e-10
4.41504e-10
6.56224e-10
8.78629e-10
1.02111e-09
9.16343e-10
2.86505e-10
-1.26346e-09
-4.23874e-09
-9.21508e-09
-1.67509e-08
-2.72485e-08
-4.07678e-08
-5.68064e-08
-7.40778e-08
-9.03234e-08
-1.02207e-07
-1.05334e-07
-9.4434e-08
-6.37134e-08
-7.37574e-09
7.97346e-08
2.01432e-07
3.59515e-07
5.53217e-07
7.78853e-07
1.02975e-06
1.29645e-06
1.56729e-06
1.82912e-06
2.06836e-06
2.27198e-06
2.42851e-06
2.529e-06
2.56777e-06
2.54289e-06
2.45615e-06
2.31293e-06
2.12167e-06
1.89325e-06
1.64009e-06
1.37505e-06
1.11065e-06
8.585e-07
6.28386e-07
4.27941e-07
2.62437e-07
1.3456e-07
4.45109e-08
-9.78148e-09
-3.2212e-08
-2.78867e-08
-2.48355e-09
3.76156e-08
8.60289e-08
1.36729e-07
1.85159e-07
2.27766e-07
2.60665e-07
2.82646e-07
2.93385e-07
2.93067e-07
2.83e-07
2.64921e-07
2.4088e-07
2.13012e-07
1.8336e-07
1.53715e-07
1.2552e-07
9.98656e-08
7.73794e-08
5.83475e-08
4.28027e-08
3.053e-08
2.1149e-08
1.41998e-08
9.21016e-09
5.73993e-09
3.40644e-09
1.89453e-09
9.56882e-10
4.07112e-10
1.10567e-10
-2.7143e-11
-7.18493e-11
-5.87989e-11
6.23061e-18
1.54196e-17
-2.49296e-18
-2.22745e-17
-3.37967e-17
-3.78187e-17
-3.72626e-17
-3.41771e-17
-2.99757e-17
-2.55582e-17
-2.14121e-17
-1.77152e-17
-1.44838e-17
-1.16908e-17
-9.30812e-18
-7.30696e-18
-5.65464e-18
-4.31411e-18
-3.24522e-18
-2.40704e-18
-1.76015e-18
-1.26814e-18
-8.9848e-19
-6.22835e-19
-4.17274e-19
-2.62462e-19
-1.43704e-19
-5.06551e-20
2.33663e-20
8.23445e-20
1.28561e-19
1.63406e-19
1.87935e-19
2.03166e-19
2.10206e-19
2.10264e-19
2.04608e-19
1.94498e-19
1.81129e-19
1.65585e-19
1.48809e-19
1.31588e-19
1.14552e-19
9.81895e-20
8.28564e-20
6.87995e-20
5.6172e-20
4.505e-20
3.54455e-20
2.73183e-20
2.05859e-20
1.51332e-20
1.08224e-20
7.50286e-21
5.02028e-21
3.22336e-21
1.9628e-21
1.07414e-21
3.48282e-22
-4.41908e-22
-1.20774e-21
-3.54731e-22
7.81997e-21
3.58777e-20
9.76834e-20
1.68799e-19
6.12046e-20
-8.42514e-19
-3.92214e-18
-1.11396e-17
-2.25006e-17
-2.70785e-17
1.87106e-17
2.29669e-16
8.32971e-16
2.14067e-15
4.25496e-15
6.0877e-15
3.00573e-15
-1.76893e-14
-8.3609e-14
-2.44173e-13
-5.69359e-13
-1.12096e-12
-1.85999e-12
-2.43395e-12
-1.77594e-12
2.53375e-12
1.51062e-11
4.35412e-11
9.85773e-11
1.92446e-10
3.33629e-10
5.15642e-10
6.9732e-10
7.72934e-10
5.32881e-10
-3.79482e-10
-2.50135e-09
-6.54778e-09
-1.33199e-08
-2.35192e-08
-3.74664e-08
-5.4676e-08
-7.33505e-08
-8.98541e-08
-9.82784e-08
-9.02344e-08
-5.50117e-08
1.9777e-08
1.47009e-07
3.38348e-07
6.02145e-07
9.4119e-07
1.35059e-06
1.81613e-06
2.31345e-06
2.80824e-06
3.25773e-06
3.61331e-06
3.82403e-06
3.84085e-06
3.621e-06
3.13218e-06
2.35608e-06
1.29092e-06
-4.75301e-08
-1.62676e-06
-3.39982e-06
-5.30821e-06
-7.28539e-06
-9.26186e-06
-1.11693e-05
-1.2944e-05
-1.45295e-05
-1.58792e-05
-1.69611e-05
-1.77557e-05
-1.8256e-05
-1.8466e-05
-1.83985e-05
-1.80727e-05
-1.75147e-05
-1.67557e-05
-1.583e-05
-1.47713e-05
-1.36114e-05
-1.23833e-05
-1.11184e-05
-9.84957e-06
-8.60135e-06
-7.3942e-06
-6.25529e-06
-5.20015e-06
-4.24025e-06
-3.38468e-06
-2.63867e-06
-2.00249e-06
-1.47318e-06
-1.04418e-06
-7.06505e-07
-4.49281e-07
-2.60581e-07
-1.2836e-07
-4.0797e-08
1.28289e-08
4.17937e-08
5.38626e-08
5.51912e-08
5.03805e-08
4.26575e-08
3.41259e-08
2.60321e-08
1.90103e-08
1.32915e-08
8.86143e-09
5.58408e-09
3.2659e-09
1.73578e-09
7.07727e-10
-1.77344e-16
-3.35176e-16
-5.46556e-18
2.93968e-16
4.48337e-16
4.92277e-16
4.76908e-16
4.32396e-16
3.76807e-16
3.2047e-16
2.6867e-16
2.23183e-16
1.83906e-16
1.50191e-16
1.21443e-16
9.71603e-17
7.68823e-17
6.01638e-17
4.65615e-17
3.5639e-17
2.69803e-17
2.02e-17
1.49505e-17
1.0923e-17
7.84813e-18
5.49601e-18
3.67855e-18
2.25038e-18
1.10707e-18
1.79352e-19
-5.75562e-19
-1.18312e-18
-1.65912e-18
-2.01514e-18
-2.26176e-18
-2.41015e-18
-2.47246e-18
-2.46165e-18
-2.39097e-18
-2.2734e-18
-2.12116e-18
-1.94532e-18
-1.75557e-18
-1.56008e-18
-1.36558e-18
-1.17738e-18
-9.99567e-19
-8.35114e-19
-6.86055e-19
-5.5359e-19
-4.38196e-19
-3.3972e-19
-2.57474e-19
-1.90333e-19
-1.36844e-19
-9.5334e-20
-6.403e-20
-4.11983e-20
-2.53315e-20
-1.53377e-20
-1.03452e-20
-7.89761e-21
1.71829e-21
4.58424e-20
1.73345e-19
4.03428e-19
4.98331e-19
-6.20206e-19
-5.80771e-18
-1.99674e-17
-4.57945e-17
-6.58094e-17
3.93464e-18
3.96975e-16
1.5768e-15
4.1287e-15
7.96772e-15
9.89756e-15
-1.80155e-15
-5.64281e-14
-2.10613e-13
-5.46033e-13
-1.12275e-12
-1.82545e-12
-2.00672e-12
1.76305e-13
8.76079e-12
3.10897e-11
7.8275e-11
1.63354e-10
2.9429e-10
4.57851e-10
5.90131e-10
5.31296e-10
-3.23606e-11
-1.62556e-09
-5.01107e-09
-1.11374e-08
-2.09368e-08
-3.488e-08
-5.22458e-08
-7.02852e-08
-8.31571e-08
-8.09895e-08
-4.93438e-08
3.05462e-08
1.80399e-07
4.22124e-07
7.73634e-07
1.24347e-06
1.82484e-06
2.48981e-06
3.18489e-06
3.82892e-06
4.31426e-06
4.51185e-06
4.28015e-06
3.47719e-06
1.97468e-06
-3.27002e-07
-3.48532e-06
-7.50512e-06
-1.23324e-05
-1.78537e-05
-2.39012e-05
-3.02621e-05
-3.6692e-05
-4.29317e-05
-4.87288e-05
-5.38602e-05
-5.81402e-05
-6.14347e-05
-6.36683e-05
-6.48264e-05
-6.49513e-05
-6.41302e-05
-6.24922e-05
-6.01962e-05
-5.74119e-05
-5.43104e-05
-5.10507e-05
-4.77654e-05
-4.45597e-05
-4.15096e-05
-3.86663e-05
-3.60409e-05
-3.36209e-05
-3.13785e-05
-2.92755e-05
-2.72729e-05
-2.53257e-05
-2.33994e-05
-2.14699e-05
-1.95274e-05
-1.75733e-05
-1.5621e-05
-1.36942e-05
-1.18219e-05
-1.0036e-05
-8.36707e-06
-6.84171e-06
-5.47974e-06
-4.29292e-06
-3.28493e-06
-2.45081e-06
-1.77897e-06
-1.25318e-06
-8.53856e-07
-5.59972e-07
-3.50773e-07
-2.07153e-07
-1.12508e-07
-5.31131e-08
-1.81226e-08
6.71154e-10
9.22824e-09
1.17094e-08
1.0883e-08
8.659e-09
5.55096e-09
3.35065e-15
5.05546e-15
6.79047e-16
-2.84257e-15
-4.58679e-15
-5.07256e-15
-4.9187e-15
-4.46576e-15
-3.9043e-15
-3.33687e-15
-2.81519e-15
-2.35758e-15
-1.9633e-15
-1.62494e-15
-1.33541e-15
-1.08887e-15
-8.80431e-16
-7.05774e-16
-5.60867e-16
-4.41864e-16
-3.45128e-16
-2.67274e-16
-2.05223e-16
-1.56204e-16
-1.17743e-16
-8.76601e-17
-6.40633e-17
-4.53761e-17
-3.03552e-17
-1.80867e-17
-7.94633e-18
4.66109e-19
7.39844e-18
1.3008e-17
1.74073e-17
2.06937e-17
2.29654e-17
2.43278e-17
2.4894e-17
2.4782e-17
2.41108e-17
2.29964e-17
2.15473e-17
1.98629e-17
1.80305e-17
1.61256e-17
1.42114e-17
1.234e-17
1.05528e-17
8.88201e-18
7.35136e-18
5.97672e-18
4.76678e-18
3.72371e-18
2.84383e-18
2.11849e-18
1.53507e-18
1.07814e-18
7.30379e-19
4.73345e-19
2.87971e-19
1.56375e-19
6.98859e-20
5.17329e-20
1.94277e-19
6.55565e-19
1.40477e-18
1.25343e-18
-4.32745e-18
-2.57986e-17
-7.66948e-17
-1.47884e-16
-1.25638e-16
3.78354e-16
2.23255e-15
6.67795e-15
1.38972e-14
1.82625e-14
-2.27518e-15
-1.02823e-13
-3.83962e-13
-9.63717e-13
-1.82563e-12
-2.39937e-12
-7.02209e-13
8.01627e-12
3.27338e-11
8.67993e-11
1.83583e-10
3.22191e-10
4.56048e-10
4.38092e-10
-5.67246e-11
-1.61425e-09
-5.12349e-09
-1.16951e-08
-2.23363e-08
-3.72452e-08
-5.46168e-08
-6.89399e-08
-6.93445e-08
-3.807e-08
5.00016e-08
2.25898e-07
5.22384e-07
9.66537e-07
1.56914e-06
2.3118e-06
3.13348e-06
3.91906e-06
4.49285e-06
4.61983e-06
4.01694e-06
2.37506e-06
-6.08983e-07
-5.19296e-06
-1.15462e-05
-1.97086e-05
-2.95605e-05
-4.08072e-05
-5.29768e-05
-6.54399e-05
-7.74464e-05
-8.8178e-05
-9.6811e-05
-0.000102585
-0.000104868
-0.000103208
-9.73645e-05
-8.73445e-05
-7.33985e-05
-5.59969e-05
-3.57977e-05
-1.36022e-05
9.68546e-06
3.31058e-05
5.57754e-05
7.68632e-05
9.56476e-05
0.000111541
0.000124103
0.000133082
0.000138406
0.000140152
0.00013848
0.000133737
0.000126357
0.000116831
0.000105657
9.33718e-05
8.05239e-05
6.7596e-05
5.50282e-05
4.32103e-05
3.24404e-05
2.29357e-05
1.48329e-05
8.18144e-06
2.95766e-06
-9.27645e-07
-3.61303e-06
-5.27138e-06
-6.09369e-06
-6.27343e-06
-5.99405e-06
-5.41822e-06
-4.68179e-06
-3.8909e-06
-3.12185e-06
-2.42373e-06
-1.82292e-06
-1.32836e-06
-9.36912e-07
-6.38065e-07
-4.1771e-07
-2.60829e-07
-1.53361e-07
-8.29363e-08
-3.96733e-08
-1.38448e-08
-4.66996e-14
-5.70128e-14
-1.25455e-14
2.06044e-14
3.72549e-14
4.24173e-14
4.17661e-14
3.83737e-14
3.39299e-14
2.93262e-14
2.50212e-14
2.12018e-14
1.78884e-14
1.50283e-14
1.25622e-14
1.04404e-14
8.62205e-15
7.07295e-15
5.76273e-15
4.66326e-15
3.74806e-15
2.99235e-15
2.3733e-15
1.87011e-15
1.46395e-15
1.13784e-15
8.76473e-16
6.66353e-16
4.95947e-16
3.55971e-16
2.39432e-16
1.41408e-16
5.86192e-17
-1.10495e-17
-6.89773e-17
-1.16143e-16
-1.53352e-16
-1.81378e-16
-2.01026e-16
-2.13156e-16
-2.18679e-16
-2.18531e-16
-2.13649e-16
-2.04945e-16
-1.93277e-16
-1.79432e-16
-1.64117e-16
-1.47952e-16
-1.31474e-16
-1.15138e-16
-9.93242e-17
-8.43448e-17
-7.04437e-17
-5.78009e-17
-4.65342e-17
-3.67014e-17
-2.83054e-17
-2.12992e-17
-1.55944e-17
-1.10708e-17
-7.58768e-18
-4.99648e-18
-3.14818e-18
-1.87981e-18
-9.49568e-19
8.21396e-20
1.84159e-18
4.28751e-18
3.48832e-18
-1.53115e-17
-8.4243e-17
-2.36028e-16
-4.02433e-16
-1.29345e-16
1.9212e-15
8.27444e-15
2.11349e-14
3.53047e-14
1.9957e-14
-1.12781e-13
-5.3432e-13
-1.44948e-12
-2.80116e-12
-3.45275e-12
4.11274e-13
1.74684e-11
6.24304e-11
1.51796e-10
2.8567e-10
4.03493e-10
3.02902e-10
-4.75038e-10
-2.75544e-09
-7.7339e-09
-1.66976e-08
-3.02224e-08
-4.66164e-08
-5.95359e-08
-5.50609e-08
-9.23174e-09
1.12668e-07
3.53519e-07
7.56198e-07
1.34881e-06
2.12333e-06
3.00981e-06
3.85027e-06
4.37863e-06
4.21392e-06
2.87384e-06
-1.8667e-07
-5.51007e-06
-1.35481e-05
-2.4559e-05
-3.8504e-05
-5.49597e-05
-7.30638e-05
-9.15008e-05
-0.000108536
-0.000122133
-0.000130088
-0.000130213
-0.000120528
-9.94563e-05
-6.59806e-05
-1.97649e-05
3.87634e-05
0.00010838
0.000187158
0.000272736
0.000362298
0.000452838
0.000541349
0.000624993
0.000701247
0.000767949
0.000823653
0.000867447
0.000898918
0.000918118
0.000925477
0.000921819
0.000908197
0.000885769
0.000855646
0.000818963
0.000776879
0.000730447
0.00068059
0.000628198
0.000574163
0.000519294
0.000464386
0.000410246
0.000357642
0.000307304
0.000259918
0.000216075
0.000176255
0.0001408
0.000109896
8.35688e-05
6.16862e-05
4.39788e-05
3.00615e-05
1.9471e-05
1.17024e-05
6.24306e-06
2.60201e-06
3.34792e-07
-9.40731e-07
-1.53704e-06
-1.69735e-06
-1.60157e-06
-1.37575e-06
-1.10276e-06
-8.33397e-07
-5.94567e-07
-4.0206e-07
-2.3926e-07
5.10367e-13
5.04957e-13
1.4431e-13
-1.11129e-13
-2.4507e-13
-2.93225e-13
-2.96784e-13
-2.78361e-13
-2.50589e-13
-2.20209e-13
-1.90827e-13
-1.64146e-13
-1.40639e-13
-1.20106e-13
-1.02196e-13
-8.65854e-14
-7.30064e-14
-6.12379e-14
-5.10908e-14
-4.23946e-14
-3.49895e-14
-2.87248e-14
-2.34593e-14
-1.90621e-14
-1.5413e-14
-1.24015e-14
-9.92643e-15
-7.8944e-15
-6.22078e-15
-4.83169e-15
-3.66628e-15
-2.67767e-15
-1.83182e-15
-1.10521e-15
-4.82041e-16
4.82892e-17
4.93349e-16
8.59177e-16
1.15127e-15
1.37516e-15
1.53665e-15
1.64188e-15
1.69728e-15
1.70943e-15
1.68488e-15
1.63001e-15
1.55086e-15
1.45305e-15
1.34169e-15
1.22139e-15
1.09625e-15
9.69878e-16
8.45433e-16
7.2561e-16
6.12652e-16
5.08337e-16
4.1397e-16
3.3038e-16
2.57937e-16
1.9658e-16
1.45864e-16
1.05025e-16
7.30494e-17
4.87609e-17
3.09358e-17
1.85454e-17
1.11809e-17
9.31797e-18
1.26715e-17
1.23252e-17
-2.82026e-17
-1.93889e-16
-5.78371e-16
-1.00787e-15
-2.5373e-16
5.27534e-15
2.1895e-14
5.28091e-14
7.5117e-14
-1.23654e-14
-4.58878e-13
-1.65228e-12
-3.75321e-12
-5.46631e-12
-1.44764e-12
2.11971e-11
8.3808e-11
2.04808e-10
3.58268e-10
3.80522e-10
-1.82884e-10
-2.24439e-09
-7.20095e-09
-1.65105e-08
-3.03765e-08
-4.51288e-08
-4.92611e-08
-1.89373e-08
8.49358e-08
3.14827e-07
7.26676e-07
1.35765e-06
2.19103e-06
3.11085e-06
3.85438e-06
3.97558e-06
2.83569e-06
-3.6295e-07
-6.48788e-06
-1.63288e-05
-3.04004e-05
-4.87162e-05
-7.0569e-05
-9.4354e-05
-0.000117477
-0.000136384
-0.000146737
-0.000143765
-0.000122686
-7.91514e-05
-9.80713e-06
8.72592e-05
0.000212168
0.000363061
0.000536093
0.000725633
0.0009246
0.00112483
0.00131756
0.0014948
0.00164918
0.00177462
0.00186677
0.0019231
0.00194309
0.00192833
0.00188212
0.00180925
0.00171543
0.00160697
0.00149034
0.00137167
0.0012564
0.00114892
0.00105251
0.000969128
0.000899434
0.000842927
0.000798181
0.00076303
0.00073481
0.00071071
0.000687994
0.000664229
0.000637473
0.000606391
0.000570307
0.000529202
0.000483651
0.000434713
0.000383777
0.000332408
0.000282179
0.000234535
0.000190669
0.00015145
0.000117397
8.86807e-05
6.51654e-05
4.6472e-05
3.20548e-05
2.12783e-05
1.34858e-05
8.0504e-06
4.4116e-06
2.09351e-06
7.10522e-07
-3.64312e-08
-3.78041e-07
-4.518e-07
-4.54237e-12
-3.63932e-12
-1.22918e-12
4.14489e-13
1.32495e-12
1.70221e-12
1.79011e-12
1.72642e-12
1.59096e-12
1.42761e-12
1.26097e-12
1.10411e-12
9.62531e-13
8.36637e-13
7.25099e-13
6.26366e-13
5.39051e-13
4.62006e-13
3.94274e-13
3.35008e-13
2.83419e-13
2.38752e-13
2.00288e-13
1.67343e-13
1.39275e-13
1.15482e-13
9.54049e-14
7.85167e-14
6.4318e-14
5.23425e-14
4.2174e-14
3.34629e-14
2.59342e-14
1.9382e-14
1.36591e-14
8.66332e-15
4.32375e-15
5.89055e-16
-2.58112e-15
-5.22215e-15
-7.3682e-15
-9.05432e-15
-1.03173e-14
-1.11958e-14
-1.17301e-14
-1.19613e-14
-1.19303e-14
-1.16768e-14
-1.12392e-14
-1.06534e-14
-9.9527e-15
-9.16807e-15
-8.32786e-15
-7.45804e-15
-6.58214e-15
-5.72126e-15
-4.89377e-15
-4.11517e-15
-3.39784e-15
-2.75086e-15
-2.17995e-15
-1.68753e-15
-1.27291e-15
-9.32727e-16
-6.61391e-16
-4.51603e-16
-2.94743e-16
-1.80834e-16
-9.82547e-17
-3.5591e-17
6.39494e-18
-2.09597e-17
-2.7092e-16
-9.78363e-16
-2.00169e-15
-1.25623e-15
8.24261e-15
3.97593e-14
1.00481e-13
1.39175e-13
-7.17594e-14
-1.07034e-12
-3.55481e-12
-7.1757e-12
-7.11175e-12
1.18267e-11
7.91908e-11
2.25553e-10
4.2028e-10
4.2159e-10
-4.62863e-10
-3.57215e-09
-1.0647e-08
-2.2417e-08
-3.51636e-08
-3.49117e-08
9.52682e-09
1.50883e-07
4.5864e-07
9.97384e-07
1.7818e-06
2.70871e-06
3.47643e-06
3.51345e-06
1.94683e-06
-2.35464e-06
-1.06331e-05
-2.39767e-05
-4.29497e-05
-6.71576e-05
-9.482e-05
-0.000122439
-0.000144659
-0.000154398
-0.000143291
-0.000102438
-2.3383e-05
0.000100683
0.000273218
0.000494238
0.000759125
0.00105846
0.00137831
0.00170096
0.00200613
0.00227247
0.00247917
0.0026075
0.00264238
0.00257404
0.00239813
0.00211607
0.00173499
0.00126708
0.00072898
0.000140735
-0.000475816
-0.0010981
-0.00170394
-0.00227246
-0.00278494
-0.00322588
-0.00358354
-0.00384997
-0.00402088
-0.00409584
-0.00407829
-0.00397483
-0.00379458
-0.00354881
-0.00325049
-0.00291341
-0.00255162
-0.00217895
-0.00180839
-0.00145163
-0.00111866
-0.000817433
-0.000553681
-0.000330799
-0.000149906
-1.00301e-05
9.16152e-05
0.000159221
0.000197938
0.000213399
0.000211273
0.000196886
0.000174925
0.000149254
0.00012284
9.77705e-05
7.53485e-05
5.62333e-05
4.05986e-05
2.82842e-05
1.89358e-05
1.2092e-05
7.31997e-06
3.92617e-06
3.37367e-11
2.19704e-11
8.33611e-12
-6.82106e-13
-5.96704e-12
-8.43863e-12
-9.30785e-12
-9.28201e-12
-8.79057e-12
-8.0791e-12
-7.29168e-12
-6.51168e-12
-5.78365e-12
-5.12075e-12
-4.52188e-12
-3.98214e-12
-3.49617e-12
-3.05929e-12
-2.66762e-12
-2.3178e-12
-2.00673e-12
-1.73138e-12
-1.48876e-12
-1.27598e-12
-1.0902e-12
-9.28701e-13
-7.88887e-13
-6.68291e-13
-5.64517e-13
-4.75209e-13
-3.98104e-13
-3.31143e-13
-2.72575e-13
-2.2099e-13
-1.75307e-13
-1.34735e-13
-9.87054e-14
-6.68127e-14
-3.87579e-14
-1.43068e-14
6.74176e-15
2.45762e-14
3.93845e-14
5.13608e-14
6.07108e-14
6.7651e-14
7.24046e-14
7.51985e-14
7.62596e-14
7.58107e-14
7.40674e-14
7.1236e-14
6.75131e-14
6.30853e-14